

 Parallel Execution: Process Information
 ==============================================================================
 Rank   Node Name                              NodeID   MyNodeRank  NodeMaster
    0   node054.hpc.strath.ac.uk                  0          0          0
    1   node054.hpc.strath.ac.uk                  0          1         -1
    2   node054.hpc.strath.ac.uk                  0          2         -1
    3   node054.hpc.strath.ac.uk                  0          3         -1
    4   node054.hpc.strath.ac.uk                  0          4         -1
    5   node054.hpc.strath.ac.uk                  0          5         -1
    6   node054.hpc.strath.ac.uk                  0          6         -1
    7   node054.hpc.strath.ac.uk                  0          7         -1
    8   node054.hpc.strath.ac.uk                  0          8         -1
    9   node054.hpc.strath.ac.uk                  0          9         -1
   10   node054.hpc.strath.ac.uk                  0         10         -1
   11   node054.hpc.strath.ac.uk                  0         11         -1
   12   node054.hpc.strath.ac.uk                  0         12         -1
   13   node054.hpc.strath.ac.uk                  0         13         -1
   14   node054.hpc.strath.ac.uk                  0         14         -1
 ==============================================================================


May use up to 46140MB of RAM as shared memory on node 0

 *******************************************************************************
 *                                                                             *
 *  --------------------------------                                           *
 *   Amsterdam Modeling Suite (AMS)              2021.106                      *
 *  --------------------------------                                           *
 *                                               r99350 2021-12-03             *
 *                                                                             *
 *                                                                             *
 *                              =================                              *
 *                              |               |                              *
 *                              |     A M S     |                              *
 *                              |               |                              *
 *                              =================                              *
 *                                                                             *
 *                                                                             *
 *   Online information and documentation:  https://www.scm.com/support/       *
 *   E-mail:  support@scm.com   info@scm.com                                   *
 *                                                                             *
 *   Scientific publications using AMS results must be properly referenced     *
 *   See the User Manuals (or the web site) for recommended citations          *
 *   The terms and conditions of the End User License Agreement apply to       *
 *   the use of AMS, https://www.scm.com/license-terms/                        *
 *                                                                             *
 ***********************  x86_64_linux_intel / openmpi  ************************
 
 Licensed to: Dr. Laia Vila-Nadal / Glasgow University / Glasgow / UNITED KINGDOM 2022-11-04 12:36:29
 SCM User ID: u23786
  
 AMS 2021.106  RunTime: Apr25-2023 09:51:29  ShM Nodes: 1  Procs: 15

 AMS jobname: ams
 AMS jobid  : 1749344292

 Start   directory: /users/djb20200/ADF/TM_POM/Tungsten_Addenda_Metal/Lacunary/New/Cations/PW12/PW9/Hybrid/tmp.djb20200.1122727.0.noindex/
 Results directory: /users/djb20200/ADF/TM_POM/Tungsten_Addenda_Metal/Lacunary/New/Cations/PW12/PW9/Hybrid/pbe0-Na8HA-PW9.results/
 Scratch directory: /tmp/amstmp_ams_kid0.1749344292/


 Communication costs MPI_COMM_WORLD:      1.574 usec per message,   0.0285 usec per 8-byte item
 Communication costs for intra-node:      1.573 usec per message,   0.0286 usec per 8-byte item

 RNG seed: -1893552968 -400440720 -191786956 1141034552 -1732265401 -968628619 -1006588830 1349790393



                     *************************************************************************
                     *  ADF 2021.106  RunTime: Apr25-2023 09:51:31  ShM Nodes: 1  Procs: 15  *
                     *************************************************************************
  
       ***************************
       *  GEOMETRY OPTIMIZATION  *
       ***************************

Optimization Method                    Quasi Newton
Optimization Coordinates               Delocalized Coordinates
Optimize lattice                       F
 
 ------------------------------------------------------
 Convergence criteria (Hartree,Angstrom)
 ------------------------------------------------------
 Maximum gradient               0.001000000000
 Maximum rms gradient           0.000666666667
 Maximum step allowed           0.010000000000
 Maximum rms step allowed       0.006666666667
 Maximum energy change allowe   0.000530000000
 Maximum stress energy allowe   0.000500000000
 
Initial model Hessian                  Automatic Hessian
 
------------------------------------
Quasi-Newton Optimizer Parameters
------------------------------------
Hessian Update Method                  BFGS
Maximum number of steps                  318
First GDIIS cycle                          0
Maximum GDIIS vectors                      0
Trust radius (bohr)                        0.200000
Trust radius varies                        T
Constraints converged at all steps         T
Use projector                              T
 
 Rigid motions settings for: old optimizer
 Atomic rotations (x,y,z):     T T T
 Atomic translations (x,y,z):  T T T
 Tolerance:                   1.000000000000000E-006
 
--------
Geometry
--------
Formula: HNa8O34PW9
Atoms
  Index Symbol   x (angstrom)   y (angstrom)   z (angstrom)
      1      W    -1.25617055    -6.52478999     0.04327756       adf.R=1.992
      2      O     2.11538447    -0.49293565    -1.32416711       adf.R=1.517
      3      W     1.87607760    -5.61710921     1.98835144       adf.R=1.992
      4      W    -3.07612022    -3.92091419     1.79072727       adf.R=1.992
      5      W     2.96516806    -2.12342023     1.99663750       adf.R=1.992
      6      W     0.06580441    -3.00248952    -3.44085559       adf.R=1.992
      7      W     2.87588271    -2.00456626    -1.69402511       adf.R=1.992
      8      O     3.16653252    -4.16733896    -2.00618410       adf.R=1.517
      9      O    -0.57128444    -1.32457931     3.26507517       adf.R=1.517
     10      O     2.31804300    -0.51747022     1.74622657       adf.R=1.517
     11      O     0.93483521    -4.76644135    -3.34492432       adf.R=1.517
     12      O     2.65360994    -6.86018024    -2.51597074       adf.R=1.517
     13      O     2.38232291    -5.67599919     0.05275978       adf.R=1.517
     14      O    -1.52376749    -3.94343628     2.96608335       adf.R=1.517
     15      O     1.92035566    -2.48785148     3.60708452       adf.R=1.517
     16      O     0.16432159    -6.22356322    -1.28565626       adf.R=1.517
     17      O    -0.20174043    -3.10713934     5.33021103       adf.R=1.517
     18      O    -0.61042985    -1.33816588    -2.83121627       adf.R=1.517
     19      O     0.72216563    -3.09787905     1.36872622       adf.R=1.517
     20      O    -2.45018512    -5.96405693    -1.29124175       adf.R=1.517
     21      O    -0.61095143    -1.38112458    -0.01978020       adf.R=1.517
     22      W    -3.11168355    -3.92871180    -1.67431797       adf.R=1.992
     23      O     0.76927970    -3.19944349    -1.14308428       adf.R=1.517
     24      O    -1.46743971    -8.23200703     0.01150130       adf.R=1.517
     25      O    -1.35976066    -3.81582900     0.08745834       adf.R=1.517
     26      O    -3.30449779    -2.18965852    -1.61408582       adf.R=1.517
     27      O     3.35202040    -2.50028599     0.12784816       adf.R=1.517
     28      O    -2.43324410    -5.98612256     1.39189358       adf.R=1.517
     29      O     1.87318021    -2.32054980    -3.37540233       adf.R=1.517
     30      P    -0.13929228    -2.82553476     0.08954986       adf.R=1.850
     31      O    -1.54118403    -3.91517491    -2.83783867       adf.R=1.517
     32      O    -4.32731601    -4.45166164     2.85780407       adf.R=1.517
     33      O    -3.94542536    -4.26203207     0.06173688       adf.R=1.517
     34      W     1.88951157    -5.51618458    -1.76827447       adf.R=1.992
     35      O     0.19484638    -6.30711791     1.32774415       adf.R=1.517
     36      O    -3.26720995    -2.18281644     1.73101924       adf.R=1.517
     37      O     2.67016832    -7.00515576     2.62187091       adf.R=1.517
     38      O     4.53231159    -1.84337546     2.66381863       adf.R=1.517
     39      O     0.96009495    -4.95075289     3.46441997       adf.R=1.517
     40      W     0.00751476    -2.93485424     3.62243597       adf.R=1.992
     41      O     3.18089420    -4.28699487     2.13482352       adf.R=1.517
     42      O    -4.35942523    -4.45426892    -2.74537654       adf.R=1.517
     43      O     4.41313000    -1.57903453    -2.36474255       adf.R=1.517
     44      O    -0.22626001    -2.88920895    -5.12424087       adf.R=1.517
     45      H    -0.56679038    -1.14680761    -1.86424374       adf.R=1.350
     46     Na    -2.83344377    -0.76142622     0.03792167       adf.R=2.250
     47     Na     0.18298956     0.06614294     1.55907960       adf.R=2.250
     48     Na    -1.09117315    -6.18775409    -3.27966195       adf.R=2.250
     49     Na     4.46629306    -4.53297548     0.08264742       adf.R=2.250
     50     Na    -1.08997227    -6.20096954     3.39486771       adf.R=2.250
     51     Na    -4.47972283    -6.51123923     0.05107680       adf.R=2.250
     52     Na     2.96034694    -4.23264871     4.69818764       adf.R=2.250
     53     Na     3.13432562    -4.03554912    -4.41161341       adf.R=2.250
 
Total System Charge             0.00000
Bonding info available!
 
 
----------------
ADF Engine Input
----------------
 
 Basis
 Type TZP
 Core None
 End
 XC
 Hybrid PBE0
 End
 Solvation
 Surf Delley
 Solv name=Water cav0=0.0 cav1=0.0067639
 Charged method=CONJ
 C-Mat POT
 SCF VAR ALL
 CSMRSP
 End
 SCF
 Iterations 1200
 End
 

 Title: *** (NO TITLE) ***

 Using automatic Hessian for delocalized coordinates.
 *** GOStep1 ***

 SOLVATION
-------------------------------------------

  The Delley construction of COSMO surface surface is calculated

       Division Level for Surface Triangles (NDIV)                  3
       Final Division Level for Triangles (NFDIV)                   1
       Radius of the Solvent (RSOL)                           1.93000 angstr
  Dielectric Constant (EPSL)                                 78.39000

       COSMO equation is solved iteratively-               conjugate-gradient

       Maximun of Iterations for Charges (NCIX)                  1000
       Criterion for Charge convergence (CCNV)                1.0E-08

  COSMO charges included variationally in SCF

       COSMO included at every SCF cycle

  Geometry-dependent empirical factor                         0.00000

  C-Matrix calculated in cspmtx

  In cspmtx, C-Matrix calculated using fitted potential

-------------------------------------------



 -------------------------------------------
  COSMO surface
  Area             =         1806.659
  Volume           =         5431.610
  Number of Points =         3818
 -------------------------------------------



 ======================
 RI Hartree-Fock Scheme
 ======================
  
 Fit Set Quality     : NORMAL
 Integration Quality : NORMAL
 Threshold Quality   : NORMAL
 Response Quality    : DEFAULT
 Is Range Separated  :  F
 
 RIHartreeFock Dependency: number of modified vectors:           8
 cosmo_calcen: 0.5 (esolb+esolc) (Hartrees) =   -0.158442

 Solvation energy (screening term,uncorrected) =    -99.424101 kcal/mol

 Solvation energy (dispersion and cavitation terms) =      3.378313 kcal/mol
 Solvation Energy Contributions (Hartrees)
          esola   esolb+esolc
     0.15844237   -0.31688475
 esol last cycle   -0.15844237
  
 Hartree-Fock exchange energy:   -3317.68863883427     
 cosmo_calcen: 0.5 (esolb+esolc) (Hartrees) =   -0.158442

 Solvation energy (screening term,uncorrected) =    -99.424062 kcal/mol

 Solvation energy (dispersion and cavitation terms) =      3.378313 kcal/mol
 Solvation Energy Contributions (Hartrees)
          esola   esolb+esolc
     0.15844231   -0.31688462
 esol last cycle   -0.15844231
  pauli hf:                             -8.699686246950591       -236.7305         -5459.14        -22841.02
  elstat hf:                            -5.852140562502427       -159.2448         -3672.27        -15364.79

 Energy gradients wrt nuclear displacements
 ==========================================

     Atom      Cartesian (a.u./angstrom)
                 X         Y         Z
 ----------------------------------------
     1 W     0.005557  0.004923 -0.000478
     2 O    -0.011972  0.024176  0.005776
     3 W    -0.003166  0.001663 -0.006946
     4 W     0.006799 -0.009265 -0.002727
     5 W    -0.002301 -0.011650 -0.002404
     6 W     0.000335 -0.003070  0.004563
     7 W     0.000155 -0.012276  0.000479
     8 O     0.013194  0.004407 -0.002841
     9 O    -0.008987  0.024769 -0.006153
    10 O    -0.009477  0.024415 -0.003690
    11 O     0.000589 -0.006294 -0.009050
    12 O     0.013060 -0.023469 -0.013048
    13 O     0.006420 -0.000955  0.003357
    14 O    -0.000476 -0.005480  0.003547
    15 O     0.005386  0.000621  0.011292
    16 O    -0.003014 -0.003210 -0.005042
    17 O    -0.003697 -0.002739  0.027748
    18 O    -0.005254  0.014167  0.004158
    19 O     0.001700 -0.000881  0.000610
    20 O    -0.008391 -0.002947 -0.009848
    21 O    -0.004361  0.010709  0.000718
    22 W     0.006821 -0.008496  0.002690
    23 O     0.001178 -0.002070 -0.000387
    24 O    -0.003322 -0.029612 -0.000778
    25 O    -0.000177 -0.001166 -0.000463
    26 O    -0.003341  0.026051  0.000701
    27 O     0.005196 -0.004593 -0.000133
    28 O    -0.008773 -0.002288  0.010511
    29 O     0.006689  0.004113 -0.009779
    30 P     0.001213 -0.001204  0.001034
    31 O    -0.001472 -0.004655 -0.003496
    32 O    -0.020770 -0.008291  0.017548
    33 O    -0.012239 -0.003492  0.000372
    34 W    -0.005407  0.003448  0.002718
    35 O    -0.001267 -0.003064  0.002649
    36 O    -0.002717  0.026746 -0.000743
    37 O     0.013625 -0.023968  0.010496
    38 O     0.026006  0.005248  0.010847
    39 O    -0.005382 -0.000812  0.012374
    40 W     0.003878 -0.009931 -0.004077
    41 O     0.011838  0.003780  0.003211
    42 O    -0.020865 -0.008326 -0.017718
    43 O     0.025029  0.007400 -0.010682
    44 O    -0.005402  0.002155 -0.029624
    45 H    -0.001164  0.003817  0.001553
    46 Na    0.001385  0.000386  0.000428
    47 Na   -0.001408 -0.000119  0.000271
    48 Na   -0.000056 -0.001045 -0.000997
    49 Na    0.001194  0.000206  0.000009
    50 Na   -0.001073  0.000067  0.003213
    51 Na   -0.001633  0.001076 -0.000502
    52 Na    0.000821  0.001337  0.000438
    53 Na   -0.000505 -0.000313 -0.001705
 ----------------------------------------
 Mulliken charges used for AMS results%charges...
 
----------------------------------------------------------------------
Geometry Convergence after Step   1       (Hartree/Angstrom,Angstrom)
----------------------------------------------------------------------
current energy                              -18.88282317 Hartree
energy change                     -18.88282317     0.00053000    F
constrained gradient max            0.02964013     0.00100000    F
constrained gradient rms            0.00948133     0.00066667    F
gradient max                        0.02964013
gradient rms                        0.00948133
cart. step max                      0.07931335     0.01000000    F
cart. step rms                      0.01426466     0.00666667    F
 
 
--------
Geometry
--------
Formula: HNa8O34PW9
Atoms
  Index Symbol   x (angstrom)   y (angstrom)   z (angstrom)
      1      W    -1.25369079    -6.50968147     0.04706063       adf.R=1.992
      2      O     2.11462219    -0.50804567    -1.31681489       adf.R=1.517
      3      W     1.86224189    -5.60032805     1.98220709       adf.R=1.992
      4      W    -3.06560213    -3.91680354     1.78769134       adf.R=1.992
      5      W     2.96018687    -2.12763202     1.98654581       adf.R=1.992
      6      W     0.06004265    -3.00370774    -3.42892883       adf.R=1.992
      7      W     2.86665017    -2.00940696    -1.68492324       adf.R=1.992
      8      O     3.15181340    -4.16848514    -1.99561965       adf.R=1.517
      9      O    -0.56652836    -1.33286859     3.25895978       adf.R=1.517
     10      O     2.32334665    -0.53084623     1.74030278       adf.R=1.517
     11      O     0.92744991    -4.76220633    -3.32876676       adf.R=1.517
     12      O     2.63834702    -6.84447301    -2.49700505       adf.R=1.517
     13      O     2.37032167    -5.66719427     0.05547382       adf.R=1.517
     14      O    -1.51737585    -3.93768834     2.95352571       adf.R=1.517
     15      O     1.91388525    -2.49267991     3.58862328       adf.R=1.517
     16      O     0.16202354    -6.21348367    -1.27637519       adf.R=1.517
     17      O    -0.19933432    -3.10733171     5.30436801       adf.R=1.517
     18      O    -0.61355805    -1.35097293    -2.81631161       adf.R=1.517
     19      O     0.71892065    -3.09647369     1.36120683       adf.R=1.517
     20      O    -2.43910937    -5.95529677    -1.28550236       adf.R=1.517
     21      O    -0.60944990    -1.38015052    -0.02323823       adf.R=1.517
     22      W    -3.10169945    -3.92674361    -1.67161002       adf.R=1.992
     23      O     0.76253495    -3.19696141    -1.13617818       adf.R=1.517
     24      O    -1.46420786    -8.20291903     0.01869216       adf.R=1.517
     25      O    -1.35512572    -3.80628212     0.08737847       adf.R=1.517
     26      O    -3.29821424    -2.20064232    -1.61440489       adf.R=1.517
     27      O     3.34510397    -2.50497699     0.12681632       adf.R=1.517
     28      O    -2.42359854    -5.97589992     1.39008459       adf.R=1.517
     29      O     1.86235422    -2.32595731    -3.35821360       adf.R=1.517
     30      P    -0.14117923    -2.81942324     0.08921756       adf.R=1.850
     31      O    -1.53897377    -3.91346702    -2.83034898       adf.R=1.517
     32      O    -4.30458847    -4.44985198     2.84619333       adf.R=1.517
     33      O    -3.92592426    -4.26095287     0.06190578       adf.R=1.517
     34      W     1.88048678    -5.51073398    -1.75670447       adf.R=1.992
     35      O     0.18796602    -6.29080704     1.32914840       adf.R=1.517
     36      O    -3.26134888    -2.19199218     1.72965144       adf.R=1.517
     37      O     2.64732440    -6.97792767     2.61227386       adf.R=1.517
     38      O     4.51583035    -1.85693218     2.64969218       adf.R=1.517
     39      O     0.95411213    -4.94318928     3.45421195       adf.R=1.517
     40      W     0.00581153    -2.93315280     3.60972493       adf.R=1.992
     41      O     3.16934767    -4.28527656     2.12376012       adf.R=1.517
     42      O    -4.33808678    -4.45439043    -2.73308759       adf.R=1.517
     43      O     4.39249352    -1.59152823    -2.35225382       adf.R=1.517
     44      O    -0.22727531    -2.89116317    -5.09879855       adf.R=1.517
     45      H    -0.56512910    -1.17719758    -1.84738004       adf.R=1.350
     46     Na    -2.83478695    -0.76863088     0.03616346       adf.R=2.250
     47     Na     0.19100167     0.06190040     1.55695582       adf.R=2.250
     48     Na    -1.09099674    -6.18534876    -3.27115168       adf.R=2.250
     49     Na     4.45961431    -4.53663804     0.08236306       adf.R=2.250
     50     Na    -1.05577003    -6.20116008     3.31555436       adf.R=2.250
     51     Na    -4.41795122    -6.52026816     0.06048039       adf.R=2.250
     52     Na     2.93196339    -4.26152510     4.66233756       adf.R=2.250
     53     Na     3.13662886    -4.04565818    -4.36899140       adf.R=2.250
 
Total System Charge             0.00000
Bonding info available!
 
 *** GOStep2 ***

 SOLVATION
-------------------------------------------

  The Delley construction of COSMO surface surface is calculated

       Division Level for Surface Triangles (NDIV)                  3
       Final Division Level for Triangles (NFDIV)                   1
       Radius of the Solvent (RSOL)                           1.93000 angstr
  Dielectric Constant (EPSL)                                 78.39000

       COSMO equation is solved iteratively-               conjugate-gradient

       Maximun of Iterations for Charges (NCIX)                  1000
       Criterion for Charge convergence (CCNV)                1.0E-08

  COSMO charges included variationally in SCF

       COSMO included at every SCF cycle

  Geometry-dependent empirical factor                         0.00000

  C-Matrix calculated in cspmtx

  In cspmtx, C-Matrix calculated using fitted potential

-------------------------------------------



 -------------------------------------------
  COSMO surface
  Area             =         1794.349
  Volume           =         5393.961
  Number of Points =         3793
 -------------------------------------------



 ======================
 RI Hartree-Fock Scheme
 ======================
  
 Fit Set Quality     : NORMAL
 Integration Quality : NORMAL
 Threshold Quality   : NORMAL
 Response Quality    : DEFAULT
 Is Range Separated  :  F
 
 RIHartreeFock Dependency: number of modified vectors:           9
 cosmo_calcen: 0.5 (esolb+esolc) (Hartrees) =   -0.155745

 Solvation energy (screening term,uncorrected) =    -97.731708 kcal/mol

 Solvation energy (dispersion and cavitation terms) =      3.355294 kcal/mol
 Solvation Energy Contributions (Hartrees)
          esola   esolb+esolc
     0.15574537   -0.31149075
 esol last cycle   -0.15574537
  
 Hartree-Fock exchange energy:   -3317.99840430855     
 cosmo_calcen: 0.5 (esolb+esolc) (Hartrees) =   -0.155745

 Solvation energy (screening term,uncorrected) =    -97.731768 kcal/mol

 Solvation energy (dispersion and cavitation terms) =      3.355294 kcal/mol
 Solvation Energy Contributions (Hartrees)
          esola   esolb+esolc
     0.15574547   -0.31149094
 esol last cycle   -0.15574547
  pauli hf:                            -11.049388387324029       -300.6692         -6933.60        -29010.17
  elstat hf:                            -5.984757045017432       -162.8535         -3755.49        -15712.98

 Energy gradients wrt nuclear displacements
 ==========================================

     Atom      Cartesian (a.u./angstrom)
                 X         Y         Z
 ----------------------------------------
     1 W    -0.002774 -0.011420  0.006077
     2 O    -0.000268  0.000124 -0.000071
     3 W    -0.000728 -0.007986  0.005777
     4 W    -0.008136  0.001283  0.011397
     5 W     0.010427  0.008414  0.000277
     6 W    -0.008651  0.002722 -0.015209
     7 W     0.011571  0.011336 -0.000305
     8 O     0.004322 -0.000459 -0.001905
     9 O    -0.000418  0.001561 -0.000733
    10 O     0.000145  0.000987  0.000109
    11 O     0.000309 -0.002125 -0.004568
    12 O    -0.000250  0.000164  0.000069
    13 O     0.003159  0.000603  0.000214
    14 O    -0.000666 -0.001407  0.001518
    15 O     0.002720 -0.000345  0.004787
    16 O    -0.000310 -0.000819 -0.003424
    17 O    -0.000196 -0.000528  0.000432
    18 O    -0.001618  0.005282  0.003342
    19 O    -0.001958 -0.000752 -0.005729
    20 O    -0.002229 -0.002057 -0.003789
    21 O    -0.000860  0.000061  0.000393
    22 W    -0.008730  0.002683 -0.011185
    23 O    -0.003855 -0.000821  0.005584
    24 O     0.000304 -0.000373 -0.000326
    25 O     0.006683  0.003993 -0.000739
    26 O    -0.000553  0.001414 -0.000290
    27 O     0.001944 -0.001206 -0.000208
    28 O    -0.000992 -0.001943  0.004019
    29 O     0.002111  0.001570 -0.004261
    30 P    -0.001352  0.004500  0.000656
    31 O    -0.000081 -0.000343 -0.001812
    32 O    -0.000280 -0.000274  0.000164
    33 O    -0.005208 -0.001867 -0.000258
    34 W     0.006771 -0.012764 -0.002073
    35 O    -0.001460 -0.000756  0.004281
    36 O     0.000074  0.001666  0.000054
    37 O     0.000259 -0.000373 -0.000110
    38 O     0.000360  0.000198  0.000018
    39 O    -0.000611 -0.003132  0.003362
    40 W    -0.006541  0.003446  0.011223
    41 O     0.004044 -0.001019  0.000865
    42 O    -0.000308 -0.000166 -0.000148
    43 O     0.000335  0.000126  0.000439
    44 O     0.000077 -0.000268  0.000589
    45 H    -0.000185  0.000149 -0.001269
    46 Na    0.001399 -0.000040  0.000422
    47 Na   -0.001209 -0.000565  0.000290
    48 Na   -0.000418 -0.000975 -0.000624
    49 Na    0.001013  0.000209  0.000140
    50 Na    0.003146  0.001149 -0.006155
    51 Na    0.001378  0.001515 -0.000402
    52 Na   -0.001179  0.000214 -0.001728
    53 Na   -0.000527 -0.000584  0.000825
 ----------------------------------------
 Mulliken charges used for AMS results%charges...

 dE(predicted):    -0.55976E-02, dE(actual):    -0.64133E-02, Trust radius:    0.400000, all in a.u.
 
----------------------------------------------------------------------
Geometry Convergence after Step   2       (Hartree/Angstrom,Angstrom)
----------------------------------------------------------------------
current energy                              -18.88923648 Hartree
energy change                      -0.00641331     0.00053000    F
constrained gradient max            0.01522407     0.00100000    F
constrained gradient rms            0.00387956     0.00066667    F
gradient max                        0.01522407
gradient rms                        0.00387956
cart. step max                      0.20823335     0.01000000    F
cart. step rms                      0.02159440     0.00666667    F
 
 
--------
Geometry
--------
Formula: HNa8O34PW9
Atoms
  Index Symbol   x (angstrom)   y (angstrom)   z (angstrom)
      1      W    -1.24489769    -6.50313084     0.03256014       adf.R=1.992
      2      O     2.10811711    -0.51820563    -1.30274600       adf.R=1.517
      3      W     1.85979108    -5.58913914     1.96329574       adf.R=1.992
      4      W    -3.05113269    -3.91978620     1.78177627       adf.R=1.992
      5      W     2.95703123    -2.13603790     1.97692697       adf.R=1.992
      6      W     0.05741054    -3.00216310    -3.42002270       adf.R=1.992
      7      W     2.85840990    -2.01277698    -1.67784724       adf.R=1.992
      8      O     3.14476975    -4.16573199    -1.99503371       adf.R=1.517
      9      O    -0.56392176    -1.34222369     3.24258811       adf.R=1.517
     10      O     2.32615828    -0.54321216     1.73097370       adf.R=1.517
     11      O     0.92593322    -4.75490404    -3.32436837       adf.R=1.517
     12      O     2.63647656    -6.83230152    -2.50133492       adf.R=1.517
     13      O     2.36847472    -5.66233860     0.04444433       adf.R=1.517
     14      O    -1.51410362    -3.94582130     2.95320252       adf.R=1.517
     15      O     1.90959179    -2.49800169     3.57349555       adf.R=1.517
     16      O     0.16714740    -6.20731097    -1.28375267       adf.R=1.517
     17      O    -0.19904770    -3.10426704     5.28453907       adf.R=1.517
     18      O    -0.61703245    -1.36101104    -2.80017201       adf.R=1.517
     19      O     0.72181774    -3.10725155     1.35483367       adf.R=1.517
     20      O    -2.42916960    -5.95372916    -1.29213169       adf.R=1.517
     21      O    -0.60261374    -1.38838453    -0.02837506       adf.R=1.517
     22      W    -3.08945480    -3.92925505    -1.67073874       adf.R=1.992
     23      O     0.76211893    -3.20025162    -1.13526530       adf.R=1.517
     24      O    -1.45430288    -8.19088728     0.00711822       adf.R=1.517
     25      O    -1.34819679    -3.80863139     0.08416033       adf.R=1.517
     26      O    -3.28675663    -2.20915502    -1.61394458       adf.R=1.517
     27      O     3.34150712    -2.51321068     0.12410295       adf.R=1.517
     28      O    -2.41115030    -5.97363507     1.37350851       adf.R=1.517
     29      O     1.85366875    -2.32273904    -3.34614416       adf.R=1.517
     30      P    -0.13711329    -2.82636855     0.08715624       adf.R=1.850
     31      O    -1.53360957    -3.91489879    -2.82689650       adf.R=1.517
     32      O    -4.28714642    -4.44944098     2.83670514       adf.R=1.517
     33      O    -3.90820039    -4.26416018     0.06020212       adf.R=1.517
     34      W     1.87964169    -5.50537156    -1.75989293       adf.R=1.992
     35      O     0.19326817    -6.27972630     1.30789988       adf.R=1.517
     36      O    -3.24583959    -2.20063848     1.72570712       adf.R=1.517
     37      O     2.63786090    -6.96450671     2.59190487       adf.R=1.517
     38      O     4.50723321    -1.86724648     2.63962995       adf.R=1.517
     39      O     0.95586685    -4.93950837     3.43459867       adf.R=1.517
     40      W     0.00578556    -2.93701111     3.59463035       adf.R=1.992
     41      O     3.16766090    -4.28655179     2.11095725       adf.R=1.517
     42      O    -4.32212069    -4.45444362    -2.72899512       adf.R=1.517
     43      O     4.37799454    -1.59284400    -2.34470668       adf.R=1.517
     44      O    -0.22974713    -2.88274875    -5.08420233       adf.R=1.517
     45      H    -0.56556851    -1.19917326    -1.82898467       adf.R=1.350
     46     Na    -2.82769921    -0.77366548     0.03347272       adf.R=2.250
     47     Na     0.19791986     0.05826405     1.54671470       adf.R=2.250
     48     Na    -1.08243254    -6.18216220    -3.27944432       adf.R=2.250
     49     Na     4.46085259    -4.54108083     0.07160372       adf.R=2.250
     50     Na    -1.18305033    -6.19034628     3.52378771       adf.R=2.250
     51     Na    -4.42773553    -6.51897940     0.06979489       adf.R=2.250
     52     Na     2.93463359    -4.24248388     4.68305499       adf.R=2.250
     53     Na     3.14782220    -4.01086711    -4.38438489       adf.R=2.250
 
Total System Charge             0.00000
Bonding info available!
 
 *** GOStep3 ***

 SOLVATION
-------------------------------------------

  The Delley construction of COSMO surface surface is calculated

       Division Level for Surface Triangles (NDIV)                  3
       Final Division Level for Triangles (NFDIV)                   1
       Radius of the Solvent (RSOL)                           1.93000 angstr
  Dielectric Constant (EPSL)                                 78.39000

       COSMO equation is solved iteratively-               conjugate-gradient

       Maximun of Iterations for Charges (NCIX)                  1000
       Criterion for Charge convergence (CCNV)                1.0E-08

  COSMO charges included variationally in SCF

       COSMO included at every SCF cycle

  Geometry-dependent empirical factor                         0.00000

  C-Matrix calculated in cspmtx

  In cspmtx, C-Matrix calculated using fitted potential

-------------------------------------------



 -------------------------------------------
  COSMO surface
  Area             =         1794.181
  Volume           =         5384.656
  Number of Points =         3797
 -------------------------------------------



 ======================
 RI Hartree-Fock Scheme
 ======================
  
 Fit Set Quality     : NORMAL
 Integration Quality : NORMAL
 Threshold Quality   : NORMAL
 Response Quality    : DEFAULT
 Is Range Separated  :  F
 
 RIHartreeFock Dependency: number of modified vectors:          10
 cosmo_calcen: 0.5 (esolb+esolc) (Hartrees) =   -0.158613

 Solvation energy (screening term,uncorrected) =    -99.531444 kcal/mol

 Solvation energy (dispersion and cavitation terms) =      3.354980 kcal/mol
 Solvation Energy Contributions (Hartrees)
          esola   esolb+esolc
     0.15861344   -0.31722687
 esol last cycle   -0.15861344
  
 Hartree-Fock exchange energy:   -3318.15111306245     
 cosmo_calcen: 0.5 (esolb+esolc) (Hartrees) =   -0.158614

 Solvation energy (screening term,uncorrected) =    -99.531499 kcal/mol

 Solvation energy (dispersion and cavitation terms) =      3.354980 kcal/mol
 Solvation Energy Contributions (Hartrees)
          esola   esolb+esolc
     0.15861352   -0.31722705
 esol last cycle   -0.15861352
  pauli hf:                             -9.836526418715721       -267.6655         -6172.51        -25825.80
  elstat hf:                            -6.039779761043633       -164.3508         -3790.02        -15857.44

 Energy gradients wrt nuclear displacements
 ==========================================

     Atom      Cartesian (a.u./angstrom)
                 X         Y         Z
 ----------------------------------------
     1 W    -0.006795 -0.017697 -0.010975
     2 O     0.005082 -0.010929 -0.002660
     3 W     0.016172 -0.005446  0.001236
     4 W    -0.014751  0.011071  0.018606
     5 W     0.013968  0.018851 -0.001171
     6 W    -0.012980  0.006820 -0.020187
     7 W     0.015355  0.021024  0.000814
     8 O    -0.002535 -0.005983  0.001168
     9 O     0.004100 -0.010250  0.002911
    10 O     0.005583 -0.011423  0.002218
    11 O     0.000753 -0.000720  0.000162
    12 O    -0.006467  0.011708  0.005921
    13 O    -0.001396  0.001097  0.000186
    14 O    -0.000232  0.000333  0.000510
    15 O    -0.000022 -0.001702  0.000539
    16 O     0.000295  0.000512  0.001174
    17 O     0.001183  0.001516 -0.012911
    18 O     0.000982 -0.001530  0.001782
    19 O    -0.003455 -0.001736 -0.007960
    20 O     0.003503 -0.004336  0.004353
    21 O     0.000888 -0.004634 -0.000864
    22 W    -0.013435  0.010593 -0.016999
    23 O    -0.008103  0.001179  0.009846
    24 O     0.001567  0.015948  0.000808
    25 O     0.010445  0.006499 -0.000741
    26 O     0.000900 -0.012098 -0.001054
    27 O    -0.000241  0.000525  0.000694
    28 O     0.004361 -0.003779 -0.005484
    29 O    -0.001659 -0.000384 -0.000221
    30 P    -0.000822  0.003017  0.000028
    31 O     0.000564  0.002075 -0.000313
    32 O     0.009374  0.004707 -0.008267
    33 O     0.000361 -0.001592  0.000573
    34 W     0.011254 -0.017571 -0.001608
    35 O     0.000457 -0.000341  0.001150
    36 O     0.001154 -0.011438  0.000936
    37 O    -0.007502  0.012776 -0.004839
    38 O    -0.011767 -0.002103 -0.005204
    39 O     0.005401 -0.005694 -0.005862
    40 W    -0.014197  0.013393  0.016564
    41 O    -0.004092 -0.008457  0.000930
    42 O     0.009592  0.003699  0.008107
    43 O    -0.011039 -0.003237  0.005629
    44 O     0.002473 -0.001206  0.014175
    45 H     0.000363 -0.001666 -0.002436
    46 Na    0.001432  0.000039  0.000376
    47 Na   -0.001262 -0.000586  0.000367
    48 Na   -0.000356 -0.000952 -0.000809
    49 Na    0.001132  0.000129 -0.000016
    50 Na   -0.005786 -0.001697  0.009678
    51 Na   -0.000761  0.000807 -0.000355
    52 Na    0.000841  0.001109  0.000853
    53 Na    0.000121 -0.000240 -0.001356
 ----------------------------------------
 Mulliken charges used for AMS results%charges...

 dE(predicted):    -0.23306E-02, dE(actual):     0.44991E-03, Trust radius:    0.100000, all in a.u.
 
----------------------------------------------------------------------
Geometry Convergence after Step   3       (Hartree/Angstrom,Angstrom)
----------------------------------------------------------------------
current energy                              -18.88878658 Hartree
energy change                       0.00044991     0.00053000    T
constrained gradient max            0.02103318     0.00100000    F
constrained gradient rms            0.00728751     0.00066667    F
gradient max                        0.02103318
gradient rms                        0.00728751
cart. step max                      0.05180919     0.01000000    F
cart. step rms                      0.00566277     0.00666667    T
 
 
--------
Geometry
--------
Formula: HNa8O34PW9
Atoms
  Index Symbol   x (angstrom)   y (angstrom)   z (angstrom)
      1      W    -1.24660541    -6.50206609     0.03773664       adf.R=1.992
      2      O     2.10588518    -0.51470361    -1.30366166       adf.R=1.517
      3      W     1.85588811    -5.58966814     1.96826448       adf.R=1.992
      4      W    -3.05147816    -3.92066419     1.78058031       adf.R=1.992
      5      W     2.95658176    -2.13598992     1.97760296       adf.R=1.992
      6      W     0.05846977    -3.00329003    -3.41976173       adf.R=1.992
      7      W     2.85722642    -2.01370858    -1.67856390       adf.R=1.992
      8      O     3.14417716    -4.16525474    -1.99445903       adf.R=1.517
      9      O    -0.56363983    -1.33835723     3.24274461       adf.R=1.517
     10      O     2.32502483    -0.53904848     1.73069588       adf.R=1.517
     11      O     0.92539678    -4.75585373    -3.32295291       adf.R=1.517
     12      O     2.63602264    -6.83717173    -2.49923299       adf.R=1.517
     13      O     2.36485547    -5.66238149     0.04815307       adf.R=1.517
     14      O    -1.51113765    -3.94327913     2.94708567       adf.R=1.517
     15      O     1.91027680    -2.49833983     3.57361384       adf.R=1.517
     16      O     0.16533239    -6.20657709    -1.27954003       adf.R=1.517
     17      O    -0.19675942    -3.10697744     5.28860625       adf.R=1.517
     18      O    -0.61631434    -1.35976256    -2.80289101       adf.R=1.517
     19      O     0.72223128    -3.10592947     1.35611100       adf.R=1.517
     20      O    -2.43029914    -5.95242246    -1.28965702       adf.R=1.517
     21      O    -0.60416154    -1.38538942    -0.02697339       adf.R=1.517
     22      W    -3.08986824    -3.92928846    -1.66957514       adf.R=1.992
     23      O     0.76247958    -3.19973878    -1.13633816       adf.R=1.517
     24      O    -1.45562591    -8.19530653     0.01030831       adf.R=1.517
     25      O    -1.35048915    -3.80876755     0.08479358       adf.R=1.517
     26      O    -3.28755904    -2.20514559    -1.61291934       adf.R=1.517
     27      O     3.33968224    -2.51309283     0.12412179       adf.R=1.517
     28      O    -2.41407628    -5.97383980     1.37844651       adf.R=1.517
     29      O     1.85462382    -2.32421660    -3.34669383       adf.R=1.517
     30      P    -0.13786622    -2.82544559     0.08741361       adf.R=1.850
     31      O    -1.53342146    -3.91511512    -2.82538574       adf.R=1.517
     32      O    -4.28993489    -4.45400526     2.83823299       adf.R=1.517
     33      O    -3.90920886    -4.26474534     0.06012306       adf.R=1.517
     34      W     1.87767658    -5.50483228    -1.75751831       adf.R=1.992
     35      O     0.19000918    -6.27950866     1.31309071       adf.R=1.517
     36      O    -3.24813941    -2.19775684     1.72526023       adf.R=1.517
     37      O     2.63750348    -6.96997946     2.59595483       adf.R=1.517
     38      O     4.51110848    -1.86753846     2.64194136       adf.R=1.517
     39      O     0.95249131    -4.93928052     3.44024080       adf.R=1.517
     40      W     0.00735849    -2.93713621     3.59431542       adf.R=1.992
     41      O     3.16536337    -4.28518115     2.11274137       adf.R=1.517
     42      O    -4.32549616    -4.45566799    -2.73106217       adf.R=1.517
     43      O     4.38075349    -1.59367463    -2.34776502       adf.R=1.517
     44      O    -0.22911208    -2.88474483    -5.08899466       adf.R=1.517
     45      H    -0.56681360    -1.19273285    -1.83144016       adf.R=1.350
     46     Na    -2.82978547    -0.76961800     0.03429701       adf.R=2.250
     47     Na     0.19740717     0.06273113     1.54669889       adf.R=2.250
     48     Na    -1.08301699    -6.18244460    -3.27562391       adf.R=2.250
     49     Na     4.45718828    -4.54187590     0.07373473       adf.R=2.250
     50     Na    -1.14605370    -6.19226066     3.47197852       adf.R=2.250
     51     Na    -4.42371388    -6.52110695     0.07179165       adf.R=2.250
     52     Na     2.92995649    -4.24971255     4.67762678       adf.R=2.250
     53     Na     3.15252664    -4.01359004    -4.37733497       adf.R=2.250
 
Total System Charge             0.00000
Bonding info available!
 
 *** GOStep4 ***

 SOLVATION
-------------------------------------------

  The Delley construction of COSMO surface surface is calculated

       Division Level for Surface Triangles (NDIV)                  3
       Final Division Level for Triangles (NFDIV)                   1
       Radius of the Solvent (RSOL)                           1.93000 angstr
  Dielectric Constant (EPSL)                                 78.39000

       COSMO equation is solved iteratively-               conjugate-gradient

       Maximun of Iterations for Charges (NCIX)                  1000
       Criterion for Charge convergence (CCNV)                1.0E-08

  COSMO charges included variationally in SCF

       COSMO included at every SCF cycle

  Geometry-dependent empirical factor                         0.00000

  C-Matrix calculated in cspmtx

  In cspmtx, C-Matrix calculated using fitted potential

-------------------------------------------



 -------------------------------------------
  COSMO surface
  Area             =         1794.027
  Volume           =         5385.351
  Number of Points =         3795
 -------------------------------------------



 ======================
 RI Hartree-Fock Scheme
 ======================
  
 Fit Set Quality     : NORMAL
 Integration Quality : NORMAL
 Threshold Quality   : NORMAL
 Response Quality    : DEFAULT
 Is Range Separated  :  F
 
 RIHartreeFock Dependency: number of modified vectors:          10
 cosmo_calcen: 0.5 (esolb+esolc) (Hartrees) =   -0.158602

 Solvation energy (screening term,uncorrected) =    -99.524265 kcal/mol

 Solvation energy (dispersion and cavitation terms) =      3.354692 kcal/mol
 Solvation Energy Contributions (Hartrees)
          esola   esolb+esolc
     0.15860199   -0.31720399
 esol last cycle   -0.15860199
  
 Hartree-Fock exchange energy:   -3318.09550069548     
 cosmo_calcen: 0.5 (esolb+esolc) (Hartrees) =   -0.158602

 Solvation energy (screening term,uncorrected) =    -99.524267 kcal/mol

 Solvation energy (dispersion and cavitation terms) =      3.354692 kcal/mol
 Solvation Energy Contributions (Hartrees)
          esola   esolb+esolc
     0.15860200   -0.31720400
 esol last cycle   -0.15860200
  pauli hf:                            -10.355467856382461       -281.7866         -6498.15        -27188.28
  elstat hf:                            -6.024825302031786       -163.9438         -3780.64        -15818.18

 Energy gradients wrt nuclear displacements
 ==========================================

     Atom      Cartesian (a.u./angstrom)
                 X         Y         Z
 ----------------------------------------
     1 W    -0.003582 -0.005888 -0.004855
     2 O     0.001368 -0.003017 -0.000775
     3 W     0.005301  0.001213  0.000028
     4 W    -0.006166  0.005048  0.011774
     5 W     0.007754  0.009456 -0.002850
     6 W    -0.009448  0.003943 -0.009791
     7 W     0.010118  0.010490  0.001978
     8 O    -0.001355 -0.004527  0.000070
     9 O     0.001420 -0.002966  0.001139
    10 O     0.002573 -0.003647  0.000845
    11 O     0.000517 -0.000268 -0.000686
    12 O    -0.001633  0.002930  0.001227
    13 O    -0.000648  0.000462 -0.000152
    14 O    -0.000189  0.000498  0.000215
    15 O     0.000345 -0.001634  0.000683
    16 O     0.000629  0.000031  0.000355
    17 O     0.000382  0.000385 -0.003567
    18 O     0.000333 -0.000297  0.000310
    19 O    -0.002448 -0.001124 -0.006191
    20 O     0.002065 -0.003542  0.002131
    21 O    -0.000677  0.000388 -0.000722
    22 W    -0.005813  0.005484 -0.010315
    23 O    -0.006376  0.000870  0.007577
    24 O     0.000329  0.003862  0.000271
    25 O     0.007983  0.005507 -0.000618
    26 O    -0.000098 -0.004070 -0.000890
    27 O     0.000131  0.000426  0.000356
    28 O     0.002876 -0.003295 -0.003804
    29 O    -0.001099 -0.000149 -0.000492
    30 P     0.000342 -0.000361  0.000184
    31 O     0.000443  0.001719 -0.000706
    32 O     0.002350  0.001351 -0.002443
    33 O    -0.000084 -0.001627  0.000269
    34 W     0.005767 -0.009184  0.002332
    35 O     0.000292 -0.000617  0.000190
    36 O     0.000385 -0.003717  0.000669
    37 O    -0.001779  0.002787 -0.001029
    38 O    -0.003011 -0.000534 -0.001338
    39 O     0.003904 -0.004585 -0.003673
    40 W    -0.009051  0.005469  0.008324
    41 O    -0.001467 -0.005617  0.000692
    42 O     0.002547  0.000858  0.002126
    43 O    -0.002806 -0.000799  0.001889
    44 O     0.000664 -0.000274  0.003513
    45 H     0.000272 -0.000900 -0.000574
    46 Na    0.001495  0.000039  0.000307
    47 Na   -0.001229 -0.000618  0.000287
    48 Na   -0.000215 -0.000707 -0.000505
    49 Na    0.000720  0.000185 -0.000016
    50 Na   -0.004131 -0.001026  0.007259
    51 Na   -0.000030  0.001030 -0.000301
    52 Na    0.000148  0.000803 -0.000106
    53 Na   -0.000119 -0.000243 -0.000600
 ----------------------------------------
 Mulliken charges used for AMS results%charges...

 dE(predicted):    -0.12057E-02, dE(actual):    -0.14215E-02, Trust radius:    0.200000, all in a.u.
 
----------------------------------------------------------------------
Geometry Convergence after Step   4       (Hartree/Angstrom,Angstrom)
----------------------------------------------------------------------
current energy                              -18.89020803 Hartree
energy change                      -0.00142145     0.00053000    F
constrained gradient max            0.01176176     0.00100000    F
constrained gradient rms            0.00357983     0.00066667    F
gradient max                        0.01176176
gradient rms                        0.00357983
cart. step max                      0.11131931     0.01000000    F
cart. step rms                      0.01117647     0.00666667    F
 
 
--------
Geometry
--------
Formula: HNa8O34PW9
Atoms
  Index Symbol   x (angstrom)   y (angstrom)   z (angstrom)
      1      W    -1.24838333    -6.49945184     0.04335914       adf.R=1.992
      2      O     2.09924852    -0.51721077    -1.30072279       adf.R=1.517
      3      W     1.85070561    -5.58831056     1.97231084       adf.R=1.992
      4      W    -3.04970530    -3.92127148     1.77729245       adf.R=1.992
      5      W     2.95365810    -2.13773642     1.97842987       adf.R=1.992
      6      W     0.05980006    -3.00718415    -3.41526840       adf.R=1.992
      7      W     2.85197946    -2.01851310    -1.67656190       adf.R=1.992
      8      O     3.14204527    -4.16520832    -1.99147036       adf.R=1.517
      9      O    -0.56302247    -1.33616280     3.23905350       adf.R=1.517
     10      O     2.32241415    -0.53802055     1.72877983       adf.R=1.517
     11      O     0.92390146    -4.75832714    -3.31851424       adf.R=1.517
     12      O     2.63329175    -6.84064139    -2.49437181       adf.R=1.517
     13      O     2.35975421    -5.66220538     0.05224337       adf.R=1.517
     14      O    -1.50464141    -3.94074622     2.93474118       adf.R=1.517
     15      O     1.90963602    -2.49634542     3.57370078       adf.R=1.517
     16      O     0.16264559    -6.20483610    -1.27380051       adf.R=1.517
     17      O    -0.19475360    -3.10867657     5.28807189       adf.R=1.517
     18      O    -0.61518278    -1.36251737    -2.80105844       adf.R=1.517
     19      O     0.72360754    -3.10795391     1.35889898       adf.R=1.517
     20      O    -2.43223088    -5.94936220    -1.28485826       adf.R=1.517
     21      O    -0.60418430    -1.38817826    -0.02467889       adf.R=1.517
     22      W    -3.08857467    -3.92954378    -1.66552986       adf.R=1.992
     23      O     0.76336907    -3.20266385    -1.13687226       adf.R=1.517
     24      O    -1.45812288    -8.19563812     0.01514693       adf.R=1.517
     25      O    -1.35387993    -3.81181772     0.08618147       adf.R=1.517
     26      O    -3.28421861    -2.20232667    -1.60937046       adf.R=1.517
     27      O     3.33469494    -2.51685246     0.12556734       adf.R=1.517
     28      O    -2.41710701    -5.97191201     1.38343829       adf.R=1.517
     29      O     1.85440866    -2.32763475    -3.34429998       adf.R=1.517
     30      P    -0.13809991    -2.82915101     0.08872320       adf.R=1.850
     31      O    -1.53225582    -3.91797946    -2.81975534       adf.R=1.517
     32      O    -4.28876478    -4.45689877     2.83785241       adf.R=1.517
     33      O    -3.91063754    -4.26307966     0.06076968       adf.R=1.517
     34      W     1.87436157    -5.50423925    -1.75375677       adf.R=1.992
     35      O     0.18643951    -6.27661472     1.31714964       adf.R=1.517
     36      O    -3.24806647    -2.19570977     1.72379374       adf.R=1.517
     37      O     2.63364038    -6.97099873     2.60045961       adf.R=1.517
     38      O     4.51076747    -1.86897282     2.64365905       adf.R=1.517
     39      O     0.94793757    -4.93610916     3.44465085       adf.R=1.517
     40      W     0.00957581    -2.93738934     3.59098118       adf.R=1.992
     41      O     3.16080135    -4.28233886     2.11496661       adf.R=1.517
     42      O    -4.32628856    -4.45424304    -2.72987020       adf.R=1.517
     43      O     4.37745909    -1.59785630    -2.34824382       adf.R=1.517
     44      O    -0.22894542    -2.88875592    -5.08743174       adf.R=1.517
     45      H    -0.56782366    -1.18871522    -1.82976450       adf.R=1.350
     46     Na    -2.82982764    -0.76518932     0.03560430       adf.R=2.250
     47     Na     0.19761074     0.06665018     1.54338642       adf.R=2.250
     48     Na    -1.08332545    -6.18399147    -3.27046230       adf.R=2.250
     49     Na     4.45253274    -4.54509901     0.07632783       adf.R=2.250
     50     Na    -1.07647879    -6.19757045     3.36065921       adf.R=2.250
     51     Na    -4.44403866    -6.51684641     0.08026684       adf.R=2.250
     52     Na     2.92903948    -4.23927626     4.69422004       adf.R=2.250
     53     Na     3.16615405    -4.00383022    -4.37806187       adf.R=2.250
 
Total System Charge             0.00000
Bonding info available!
 
 *** GOStep5 ***

 SOLVATION
-------------------------------------------

  The Delley construction of COSMO surface surface is calculated

       Division Level for Surface Triangles (NDIV)                  3
       Final Division Level for Triangles (NFDIV)                   1
       Radius of the Solvent (RSOL)                           1.93000 angstr
  Dielectric Constant (EPSL)                                 78.39000

       COSMO equation is solved iteratively-               conjugate-gradient

       Maximun of Iterations for Charges (NCIX)                  1000
       Criterion for Charge convergence (CCNV)                1.0E-08

  COSMO charges included variationally in SCF

       COSMO included at every SCF cycle

  Geometry-dependent empirical factor                         0.00000

  C-Matrix calculated in cspmtx

  In cspmtx, C-Matrix calculated using fitted potential

-------------------------------------------



 -------------------------------------------
  COSMO surface
  Area             =         1795.283
  Volume           =         5388.491
  Number of Points =         3798
 -------------------------------------------



 ======================
 RI Hartree-Fock Scheme
 ======================
  
 Fit Set Quality     : NORMAL
 Integration Quality : NORMAL
 Threshold Quality   : NORMAL
 Response Quality    : DEFAULT
 Is Range Separated  :  F
 
 RIHartreeFock Dependency: number of modified vectors:          10
 cosmo_calcen: 0.5 (esolb+esolc) (Hartrees) =   -0.158841

 Solvation energy (screening term,uncorrected) =    -99.674173 kcal/mol

 Solvation energy (dispersion and cavitation terms) =      3.357039 kcal/mol
 Solvation Energy Contributions (Hartrees)
          esola   esolb+esolc
     0.15884089   -0.31768178
 esol last cycle   -0.15884089
  
 Hartree-Fock exchange energy:   -3318.08510459826     
 cosmo_calcen: 0.5 (esolb+esolc) (Hartrees) =   -0.158841

 Solvation energy (screening term,uncorrected) =    -99.674213 kcal/mol

 Solvation energy (dispersion and cavitation terms) =      3.357039 kcal/mol
 Solvation Energy Contributions (Hartrees)
          esola   esolb+esolc
     0.15884095   -0.31768191
 esol last cycle   -0.15884095
  pauli hf:                            -11.318370521594034       -307.9885         -7102.39        -29716.38
  elstat hf:                            -6.030003894585434       -164.0848         -3783.88        -15831.77

 Energy gradients wrt nuclear displacements
 ==========================================

     Atom      Cartesian (a.u./angstrom)
                 X         Y         Z
 ----------------------------------------
     1 W     0.002680  0.002173  0.004662
     2 O    -0.000667  0.001474  0.000348
     3 W    -0.007748  0.002078 -0.001417
     4 W     0.000685 -0.000470  0.005136
     5 W     0.002567  0.002251 -0.003376
     6 W    -0.005581  0.001211 -0.001757
     7 W     0.005132  0.002524  0.002336
     8 O    -0.000922 -0.002869 -0.000074
     9 O    -0.000251  0.001386  0.000110
    10 O     0.000835  0.001016  0.000026
    11 O     0.000126  0.000659 -0.000497
    12 O     0.001189 -0.002168 -0.001588
    13 O    -0.000391  0.000125 -0.001744
    14 O    -0.000019  0.000985 -0.000669
    15 O    -0.000016 -0.001032 -0.000218
    16 O     0.001551  0.000132 -0.000392
    17 O     0.000129 -0.000476  0.001829
    18 O     0.000055 -0.000340 -0.001318
    19 O    -0.000945 -0.000050 -0.002774
    20 O     0.000764 -0.002007  0.000462
    21 O    -0.001438  0.003093 -0.000624
    22 W    -0.000109  0.001445 -0.004356
    23 O    -0.004224  0.001218  0.004186
    24 O    -0.000756 -0.003222 -0.000266
    25 O     0.003949  0.004506 -0.000331
    26 O    -0.000801  0.000781 -0.000841
    27 O    -0.000033  0.000521  0.000121
    28 O     0.001765 -0.001925 -0.001489
    29 O    -0.000772  0.000081  0.000535
    30 P     0.001135 -0.003388 -0.000005
    31 O     0.000039  0.001512 -0.000541
    32 O    -0.001630 -0.000744  0.000881
    33 O     0.000491 -0.000609 -0.000096
    34 W     0.000979 -0.003683  0.006196
    35 O     0.000514 -0.000153 -0.001362
    36 O    -0.000179  0.000881  0.000578
    37 O     0.001693 -0.002665  0.001180
    38 O     0.001828  0.000326  0.000911
    39 O     0.000735 -0.003316 -0.001557
    40 W    -0.003925 -0.000852  0.001482
    41 O     0.000282 -0.002335  0.000467
    42 O    -0.001468 -0.000638 -0.001246
    43 O     0.001799  0.000465 -0.000375
    44 O    -0.000351  0.000359 -0.002549
    45 H     0.000124  0.000042  0.001156
    46 Na    0.001566  0.000080  0.000201
    47 Na   -0.001173 -0.000617  0.000189
    48 Na    0.000061 -0.000471 -0.000217
    49 Na    0.000282  0.000078 -0.000038
    50 Na    0.000706  0.001069 -0.000227
    51 Na   -0.000727  0.000790 -0.000293
    52 Na    0.000572  0.000908  0.000235
    53 Na   -0.000107 -0.000138 -0.000986
 ----------------------------------------
 Mulliken charges used for AMS results%charges...

 dE(predicted):    -0.10798E-02, dE(actual):    -0.86392E-03, Trust radius:    0.400000, all in a.u.
 
----------------------------------------------------------------------
Geometry Convergence after Step   5       (Hartree/Angstrom,Angstrom)
----------------------------------------------------------------------
current energy                              -18.89107195 Hartree
energy change                      -0.00086392     0.00053000    F
constrained gradient max            0.00772697     0.00100000    F
constrained gradient rms            0.00187730     0.00066667    F
gradient max                        0.00772697
gradient rms                        0.00187730
cart. step max                      0.03089120     0.01000000    F
cart. step rms                      0.00569268     0.00666667    T
 
 
--------
Geometry
--------
Formula: HNa8O34PW9
Atoms
  Index Symbol   x (angstrom)   y (angstrom)   z (angstrom)
      1      W    -1.24930193    -6.49646825     0.04434733       adf.R=1.992
      2      O     2.09230522    -0.51838882    -1.30073289       adf.R=1.517
      3      W     1.85402500    -5.58503874     1.97271800       adf.R=1.992
      4      W    -3.04888772    -3.91863515     1.77591953       adf.R=1.992
      5      W     2.95197211    -2.13852611     1.97851735       adf.R=1.992
      6      W     0.06005295    -3.00870587    -3.41399992       adf.R=1.992
      7      W     2.84712797    -2.01872192    -1.67681489       adf.R=1.992
      8      O     3.14152505    -4.16183182    -1.99298011       adf.R=1.517
      9      O    -0.56311204    -1.33643115     3.23369575       adf.R=1.517
     10      O     2.32028784    -0.53870653     1.72874845       adf.R=1.517
     11      O     0.92260906    -4.75920919    -3.31851425       adf.R=1.517
     12      O     2.63259898    -6.83843025    -2.49341254       adf.R=1.517
     13      O     2.35986668    -5.65943867     0.05200586       adf.R=1.517
     14      O    -1.50310821    -3.94087645     2.93171799       adf.R=1.517
     15      O     1.90973023    -2.49751323     3.57352256       adf.R=1.517
     16      O     0.16160651    -6.20158783    -1.27252902       adf.R=1.517
     17      O    -0.19523096    -3.10635724     5.28538036       adf.R=1.517
     18      O    -0.61446318    -1.36336636    -2.80091897       adf.R=1.517
     19      O     0.72476290    -3.11018308     1.35968671       adf.R=1.517
     20      O    -2.43399259    -5.94708029    -1.28330141       adf.R=1.517
     21      O    -0.60392882    -1.39098127    -0.02264220       adf.R=1.517
     22      W    -3.08786207    -3.92903558    -1.66230606       adf.R=1.992
     23      O     0.76378443    -3.20367507    -1.13845594       adf.R=1.517
     24      O    -1.45680900    -8.19244714     0.01762958       adf.R=1.517
     25      O    -1.35561157    -3.81343097     0.08728119       adf.R=1.517
     26      O    -3.28117427    -2.20122084    -1.60613394       adf.R=1.517
     27      O     3.33085743    -2.51683789     0.12503895       adf.R=1.517
     28      O    -2.41916334    -5.96819187     1.38460834       adf.R=1.517
     29      O     1.85404564    -2.32920936    -3.34488410       adf.R=1.517
     30      P    -0.13799144    -2.83136100     0.08904299       adf.R=1.850
     31      O    -1.53170196    -3.91891869    -2.81607145       adf.R=1.517
     32      O    -4.28719630    -4.45251663     2.83830355       adf.R=1.517
     33      O    -3.91120510    -4.26254464     0.06219546       adf.R=1.517
     34      W     1.87379752    -5.50139776    -1.75461476       adf.R=1.992
     35      O     0.18753719    -6.27160355     1.31751036       adf.R=1.517
     36      O    -3.24669485    -2.19272868     1.72219311       adf.R=1.517
     37      O     2.63536043    -6.96849010     2.59953768       adf.R=1.517
     38      O     4.50931075    -1.86918246     2.64284202       adf.R=1.517
     39      O     0.95225050    -4.93089703     3.44610741       adf.R=1.517
     40      W     0.01072993    -2.93701961     3.58819819       adf.R=1.992
     41      O     3.16391999    -4.27933323     2.11365873       adf.R=1.517
     42      O    -4.32591001    -4.45169472    -2.72717122       adf.R=1.517
     43      O     4.37168275    -1.59616973    -2.34957376       adf.R=1.517
     44      O    -0.23024867    -2.89124163    -5.08579691       adf.R=1.517
     45      H    -0.56690673    -1.18646169    -1.83043166       adf.R=1.350
     46     Na    -2.82916499    -0.76119310     0.03559392       adf.R=2.250
     47     Na     0.19824973     0.06941264     1.54034725       adf.R=2.250
     48     Na    -1.08470249    -6.18391773    -3.26852147       adf.R=2.250
     49     Na     4.45213442    -4.54292860     0.07402142       adf.R=2.250
     50     Na    -1.08395113    -6.20217654     3.34414765       adf.R=2.250
     51     Na    -4.41314746    -6.52440931     0.09120860       adf.R=2.250
     52     Na     2.90678979    -4.26953751     4.66976891       adf.R=2.250
     53     Na     3.17546618    -4.01461605    -4.34972595       adf.R=2.250
 
Total System Charge             0.00000
Bonding info available!
 
 *** GOStep6 ***

 SOLVATION
-------------------------------------------

  The Delley construction of COSMO surface surface is calculated

       Division Level for Surface Triangles (NDIV)                  3
       Final Division Level for Triangles (NFDIV)                   1
       Radius of the Solvent (RSOL)                           1.93000 angstr
  Dielectric Constant (EPSL)                                 78.39000

       COSMO equation is solved iteratively-               conjugate-gradient

       Maximun of Iterations for Charges (NCIX)                  1000
       Criterion for Charge convergence (CCNV)                1.0E-08

  COSMO charges included variationally in SCF

       COSMO included at every SCF cycle

  Geometry-dependent empirical factor                         0.00000

  C-Matrix calculated in cspmtx

  In cspmtx, C-Matrix calculated using fitted potential

-------------------------------------------



 -------------------------------------------
  COSMO surface
  Area             =         1792.328
  Volume           =         5380.964
  Number of Points =         3794
 -------------------------------------------



 ======================
 RI Hartree-Fock Scheme
 ======================
  
 Fit Set Quality     : NORMAL
 Integration Quality : NORMAL
 Threshold Quality   : NORMAL
 Response Quality    : DEFAULT
 Is Range Separated  :  F
 
 RIHartreeFock Dependency: number of modified vectors:          10
 cosmo_calcen: 0.5 (esolb+esolc) (Hartrees) =   -0.158463

 Solvation energy (screening term,uncorrected) =    -99.436950 kcal/mol

 Solvation energy (dispersion and cavitation terms) =      3.351515 kcal/mol
 Solvation Energy Contributions (Hartrees)
          esola   esolb+esolc
     0.15846285   -0.31692570
 esol last cycle   -0.15846285
  
 Hartree-Fock exchange energy:   -3318.09835911913     
 cosmo_calcen: 0.5 (esolb+esolc) (Hartrees) =   -0.158463

 Solvation energy (screening term,uncorrected) =    -99.436981 kcal/mol

 Solvation energy (dispersion and cavitation terms) =      3.351515 kcal/mol
 Solvation Energy Contributions (Hartrees)
          esola   esolb+esolc
     0.15846290   -0.31692580
 esol last cycle   -0.15846290
  pauli hf:                            -12.006757439023318       -326.7205         -7534.35        -31523.74
  elstat hf:                            -6.041016864834546       -164.3844         -3790.80        -15860.69

 Energy gradients wrt nuclear displacements
 ==========================================

     Atom      Cartesian (a.u./angstrom)
                 X         Y         Z
 ----------------------------------------
     1 W    -0.001285  0.000872  0.004759
     2 O    -0.000560  0.001429  0.000379
     3 W    -0.004185  0.002863  0.002236
     4 W     0.001706 -0.002288  0.003174
     5 W     0.001442 -0.000119 -0.003070
     6 W    -0.003747 -0.000200 -0.000597
     7 W     0.003773  0.000475  0.001314
     8 O    -0.000944 -0.001176 -0.001439
     9 O    -0.000696  0.001666 -0.000051
    10 O     0.000757  0.001178 -0.000060
    11 O    -0.000852  0.001523 -0.000547
    12 O     0.000993 -0.002275 -0.001243
    13 O    -0.000416 -0.000137 -0.001719
    14 O    -0.000324  0.001114 -0.000831
    15 O    -0.000505 -0.001687 -0.000376
    16 O     0.001541  0.000200 -0.000441
    17 O     0.000206 -0.000429  0.001773
    18 O     0.000106 -0.000510 -0.001329
    19 O    -0.000378  0.000437 -0.000809
    20 O     0.000327 -0.000429 -0.000122
    21 O    -0.001398  0.002707 -0.000309
    22 W     0.001000 -0.000343 -0.002760
    23 O    -0.003021  0.001508  0.002143
    24 O    -0.000156 -0.002949 -0.000271
    25 O     0.001743  0.004019  0.000092
    26 O    -0.000787  0.001198 -0.000861
    27 O    -0.000200  0.000690  0.000278
    28 O     0.000966 -0.000126 -0.000557
    29 O    -0.000210  0.000126  0.001126
    30 P     0.000956 -0.003313 -0.000267
    31 O    -0.000528  0.001453 -0.000164
    32 O    -0.001596 -0.000594  0.000830
    33 O     0.000979 -0.000593 -0.000034
    34 W     0.002157 -0.002255  0.003699
    35 O     0.000998 -0.000193 -0.001270
    36 O    -0.000365  0.001285  0.000627
    37 O     0.001128 -0.002584  0.000454
    38 O     0.001734  0.000112  0.001092
    39 O     0.001902 -0.000488  0.000113
    40 W    -0.001757 -0.002126  0.000419
    41 O     0.000386 -0.000600 -0.000187
    42 O    -0.001470 -0.000622 -0.001078
    43 O     0.001578  0.000438 -0.000533
    44 O    -0.000207  0.000321 -0.002438
    45 H     0.000063  0.000328  0.001230
    46 Na    0.001543  0.000098  0.000171
    47 Na   -0.001117 -0.000587  0.000156
    48 Na    0.000136 -0.000345  0.000000
    49 Na   -0.000014 -0.000011 -0.000007
    50 Na   -0.000354  0.000485 -0.002120
    51 Na    0.001464  0.001247 -0.000011
    52 Na   -0.001913 -0.000299 -0.002452
    53 Na   -0.000601 -0.000496  0.001886
 ----------------------------------------
 Mulliken charges used for AMS results%charges...

 dE(predicted):    -0.17713E-03, dE(actual):    -0.12768E-03, Trust radius:    0.400000, all in a.u.
 
----------------------------------------------------------------------
Geometry Convergence after Step   6       (Hartree/Angstrom,Angstrom)
----------------------------------------------------------------------
current energy                              -18.89119964 Hartree
energy change                      -0.00012768     0.00053000    T
constrained gradient max            0.00480213     0.00100000    F
constrained gradient rms            0.00145780     0.00066667    F
gradient max                        0.00480213
gradient rms                        0.00145780
cart. step max                      0.02975544     0.01000000    F
cart. step rms                      0.00483537     0.00666667    T
 
 
--------
Geometry
--------
Formula: HNa8O34PW9
Atoms
  Index Symbol   x (angstrom)   y (angstrom)   z (angstrom)
      1      W    -1.25168027    -6.49622337     0.04050911       adf.R=1.992
      2      O     2.08539570    -0.52372935    -1.29755134       adf.R=1.517
      3      W     1.85404227    -5.58445789     1.97157001       adf.R=1.992
      4      W    -3.04702553    -3.91905123     1.77406888       adf.R=1.992
      5      W     2.95013606    -2.14224889     1.97915053       adf.R=1.992
      6      W     0.06121825    -3.01079835    -3.41223108       adf.R=1.992
      7      W     2.84252064    -2.02183689    -1.67584194       adf.R=1.992
      8      O     3.14185648    -4.16116799    -1.99321561       adf.R=1.517
      9      O    -0.56286494    -1.33775115     3.22424124       adf.R=1.517
     10      O     2.31912318    -0.54300879     1.72617232       adf.R=1.517
     11      O     0.92272580    -4.76102674    -3.32026656       adf.R=1.517
     12      O     2.63146928    -6.83712465    -2.49417506       adf.R=1.517
     13      O     2.35848263    -5.65971856     0.05092233       adf.R=1.517
     14      O    -1.50066870    -3.94539800     2.93009939       adf.R=1.517
     15      O     1.90918337    -2.49439603     3.57566173       adf.R=1.517
     16      O     0.15935739    -6.20038362    -1.27510682       adf.R=1.517
     17      O    -0.19886250    -3.10065406     5.28129608       adf.R=1.517
     18      O    -0.61312741    -1.36611593    -2.79726107       adf.R=1.517
     19      O     0.72639462    -3.11643818     1.36035409       adf.R=1.517
     20      O    -2.43768216    -5.94632401    -1.28518251       adf.R=1.517
     21      O    -0.60260815    -1.39766113    -0.02048133       adf.R=1.517
     22      W    -3.08670490    -3.92875656    -1.65908422       adf.R=1.992
     23      O     0.76491263    -3.20784125    -1.13981218       adf.R=1.517
     24      O    -1.45805218    -8.19103782     0.01431512       adf.R=1.517
     25      O    -1.35643484    -3.81887727     0.08774391       adf.R=1.517
     26      O    -3.27500664    -2.20073334    -1.60115740       adf.R=1.517
     27      O     3.32744481    -2.52206053     0.12532490       adf.R=1.517
     28      O    -2.42291460    -5.96820820     1.38159478       adf.R=1.517
     29      O     1.85409411    -2.32934531    -3.34603273       adf.R=1.517
     30      P    -0.13726036    -2.83707907     0.08948850       adf.R=1.850
     31      O    -1.53017441    -3.92138400    -2.81246074       adf.R=1.517
     32      O    -4.28399262    -4.44982186     2.83864738       adf.R=1.517
     33      O    -3.91347811    -4.26159023     0.06323824       adf.R=1.517
     34      W     1.87289820    -5.50061488    -1.75691677       adf.R=1.992
     35      O     0.18549531    -6.26977998     1.31539250       adf.R=1.517
     36      O    -3.24184232    -2.19309969     1.72128107       adf.R=1.517
     37      O     2.63284902    -6.96733707     2.59930784       adf.R=1.517
     38      O     4.50716943    -1.87131905     2.64174942       adf.R=1.517
     39      O     0.95242738    -4.92763776     3.44554685       adf.R=1.517
     40      W     0.01119690    -2.93663996     3.58460635       adf.R=1.992
     41      O     3.16411004    -4.27969761     2.11397632       adf.R=1.517
     42      O    -4.32522902    -4.44574904    -2.72505456       adf.R=1.517
     43      O     4.36560746    -1.59616905    -2.34864671       adf.R=1.517
     44      O    -0.23184509    -2.89210156    -5.08251739       adf.R=1.517
     45      H    -0.56472706    -1.18882759    -1.82754093       adf.R=1.350
     46     Na    -2.82684160    -0.75850436     0.03783431       adf.R=2.250
     47     Na     0.20114913     0.07110332     1.53396975       adf.R=2.250
     48     Na    -1.08701272    -6.18472536    -3.27063093       adf.R=2.250
     49     Na     4.45153887    -4.54628489     0.07265296       adf.R=2.250
     50     Na    -1.07725298    -6.20629098     3.34492008       adf.R=2.250
     51     Na    -4.41748702    -6.52448035     0.09888884       adf.R=2.250
     52     Na     2.90744997    -4.25039981     4.69952435       adf.R=2.250
     53     Na     3.19344753    -3.99064839    -4.36691953       adf.R=2.250
 
Total System Charge             0.00000
Bonding info available!
 
 *** GOStep7 ***

 SOLVATION
-------------------------------------------

  The Delley construction of COSMO surface surface is calculated

       Division Level for Surface Triangles (NDIV)                  3
       Final Division Level for Triangles (NFDIV)                   1
       Radius of the Solvent (RSOL)                           1.93000 angstr
  Dielectric Constant (EPSL)                                 78.39000

       COSMO equation is solved iteratively-               conjugate-gradient

       Maximun of Iterations for Charges (NCIX)                  1000
       Criterion for Charge convergence (CCNV)                1.0E-08

  COSMO charges included variationally in SCF

       COSMO included at every SCF cycle

  Geometry-dependent empirical factor                         0.00000

  C-Matrix calculated in cspmtx

  In cspmtx, C-Matrix calculated using fitted potential

-------------------------------------------



 -------------------------------------------
  COSMO surface
  Area             =         1794.656
  Volume           =         5384.318
  Number of Points =         3800
 -------------------------------------------



 ======================
 RI Hartree-Fock Scheme
 ======================
  
 Fit Set Quality     : NORMAL
 Integration Quality : NORMAL
 Threshold Quality   : NORMAL
 Response Quality    : DEFAULT
 Is Range Separated  :  F
 
 RIHartreeFock Dependency: number of modified vectors:          10
 cosmo_calcen: 0.5 (esolb+esolc) (Hartrees) =   -0.159335

 Solvation energy (screening term,uncorrected) =    -99.984120 kcal/mol

 Solvation energy (dispersion and cavitation terms) =      3.355867 kcal/mol
 Solvation Energy Contributions (Hartrees)
          esola   esolb+esolc
     0.15933482   -0.31866964
 esol last cycle   -0.15933482
  
 Hartree-Fock exchange energy:   -3318.10898337444     
 cosmo_calcen: 0.5 (esolb+esolc) (Hartrees) =   -0.159335

 Solvation energy (screening term,uncorrected) =    -99.984148 kcal/mol

 Solvation energy (dispersion and cavitation terms) =      3.355867 kcal/mol
 Solvation Energy Contributions (Hartrees)
          esola   esolb+esolc
     0.15933487   -0.31866973
 esol last cycle   -0.15933487
  pauli hf:                            -11.848880104785053       -322.4244         -7435.29        -31109.23
  elstat hf:                            -6.044498493985202       -164.4792         -3792.98        -15869.83

 Energy gradients wrt nuclear displacements
 ==========================================

     Atom      Cartesian (a.u./angstrom)
                 X         Y         Z
 ----------------------------------------
     1 W    -0.002551 -0.002352  0.002100
     2 O     0.000171  0.000043  0.000090
     3 W    -0.001644 -0.000070  0.001391
     4 W     0.000540 -0.001548  0.001626
     5 W     0.001151  0.000326 -0.001938
     6 W    -0.002616  0.000250 -0.001420
     7 W     0.002691  0.001345  0.000071
     8 O    -0.000516 -0.000315 -0.000104
     9 O    -0.000302  0.000731  0.000206
    10 O     0.001155  0.000005  0.000103
    11 O    -0.000944  0.001033 -0.000191
    12 O     0.000060 -0.000362 -0.000516
    13 O    -0.000440 -0.000091 -0.001479
    14 O     0.000098  0.000437 -0.000511
    15 O    -0.000974 -0.000926 -0.000401
    16 O     0.001454  0.000447 -0.000490
    17 O     0.000181 -0.000206  0.000153
    18 O     0.000223 -0.000823 -0.000490
    19 O     0.000243  0.000483  0.000931
    20 O     0.000337  0.000325  0.000006
    21 O    -0.000964  0.001310 -0.000030
    22 W     0.000503 -0.000568 -0.002064
    23 O    -0.001934  0.001656  0.000495
    24 O     0.000195 -0.000307 -0.000073
    25 O    -0.000216  0.003183  0.000462
    26 O    -0.000619  0.000195 -0.000829
    27 O    -0.000353  0.000227  0.000530
    28 O    -0.000129  0.000845 -0.000411
    29 O     0.000072  0.000515  0.001570
    30 P     0.000488 -0.002234 -0.000531
    31 O    -0.000815  0.001049  0.000237
    32 O    -0.000333 -0.000043 -0.000002
    33 O     0.001244 -0.000367  0.000303
    34 W     0.001968 -0.003847  0.002840
    35 O     0.000933 -0.000094 -0.001329
    36 O    -0.000313  0.000262  0.000765
    37 O     0.000000 -0.000281 -0.000131
    38 O     0.000099 -0.000210  0.000398
    39 O     0.000722  0.000212  0.000080
    40 W    -0.000840 -0.000593  0.000643
    41 O     0.000110 -0.000370 -0.000184
    42 O    -0.000257 -0.000096  0.000014
    43 O     0.000038 -0.000048 -0.000012
    44 O     0.000175  0.000149 -0.000324
    45 H     0.000081  0.000328  0.000501
    46 Na    0.001461  0.000208  0.000134
    47 Na   -0.001069 -0.000474  0.000164
    48 Na    0.000147 -0.000397 -0.000007
    49 Na    0.000051 -0.000190 -0.000029
    50 Na    0.000258  0.000096 -0.001566
    51 Na    0.001349  0.001072  0.000066
    52 Na   -0.000300  0.000318 -0.000646
    53 Na   -0.000068 -0.000238 -0.000168
 ----------------------------------------
 Mulliken charges used for AMS results%charges...

 dE(predicted):    -0.18363E-03, dE(actual):    -0.19351E-03, Trust radius:    0.400000, all in a.u.
 
----------------------------------------------------------------------
Geometry Convergence after Step   7       (Hartree/Angstrom,Angstrom)
----------------------------------------------------------------------
current energy                              -18.89139315 Hartree
energy change                      -0.00019351     0.00053000    T
constrained gradient max            0.00384727     0.00100000    F
constrained gradient rms            0.00095948     0.00066667    F
gradient max                        0.00384727
gradient rms                        0.00095948
cart. step max                      0.05986302     0.01000000    F
cart. step rms                      0.00695588     0.00666667    F
 
 
--------
Geometry
--------
Formula: HNa8O34PW9
Atoms
  Index Symbol   x (angstrom)   y (angstrom)   z (angstrom)
      1      W    -1.24926207    -6.49499863     0.03666545       adf.R=1.992
      2      O     2.07100900    -0.52813427    -1.29544572       adf.R=1.517
      3      W     1.85787107    -5.58208152     1.96997387       adf.R=1.992
      4      W    -3.04326056    -3.92094848     1.77096481       adf.R=1.992
      5      W     2.94844451    -2.14540839     1.97986955       adf.R=1.992
      6      W     0.06323566    -3.01408985    -3.41099972       adf.R=1.992
      7      W     2.83445414    -2.02235081    -1.67566695       adf.R=1.992
      8      O     3.14427770    -4.15589948    -1.99554408       adf.R=1.517
      9      O    -0.56022570    -1.34115778     3.21021773       adf.R=1.517
     10      O     2.31649112    -0.54711136     1.72417124       adf.R=1.517
     11      O     0.92595226    -4.76280674    -3.32404771       adf.R=1.517
     12      O     2.63497469    -6.83206237    -2.49443574       adf.R=1.517
     13      O     2.36015245    -5.65602575     0.04924401       adf.R=1.517
     14      O    -1.49634632    -3.95239082     2.92774725       adf.R=1.517
     15      O     1.91096121    -2.49326098     3.57839039       adf.R=1.517
     16      O     0.16013184    -6.19720273    -1.27848305       adf.R=1.517
     17      O    -0.20198407    -3.09507310     5.27509656       adf.R=1.517
     18      O    -0.61285826    -1.37019244    -2.79471279       adf.R=1.517
     19      O     0.72999943    -3.12462056     1.35940509       adf.R=1.517
     20      O    -2.43947702    -5.94631881    -1.28573621       adf.R=1.517
     21      O    -0.60111355    -1.40540289    -0.01759328       adf.R=1.517
     22      W    -3.08386025    -3.92976788    -1.65427079       adf.R=1.992
     23      O     0.76686022    -3.21242978    -1.14218289       adf.R=1.517
     24      O    -1.45478249    -8.18881546     0.01024363       adf.R=1.517
     25      O    -1.35531898    -3.82702138     0.08800158       adf.R=1.517
     26      O    -3.26448540    -2.20130798    -1.59392575       adf.R=1.517
     27      O     3.32259501    -2.52421522     0.12448166       adf.R=1.517
     28      O    -2.42317225    -5.96964626     1.37910566       adf.R=1.517
     29      O     1.85415185    -2.32951544    -3.34939748       adf.R=1.517
     30      P    -0.13577999    -2.84329607     0.08953307       adf.R=1.850
     31      O    -1.52655875    -3.92632568    -2.80751684       adf.R=1.517
     32      O    -4.27824640    -4.44728761     2.83932492       adf.R=1.517
     33      O    -3.91865288    -4.25995185     0.06437375       adf.R=1.517
     34      W     1.87486505    -5.49600256    -1.76073626       adf.R=1.992
     35      O     0.18651548    -6.26702307     1.31528355       adf.R=1.517
     36      O    -3.23418159    -2.19492238     1.71832783       adf.R=1.517
     37      O     2.63569835    -6.96435790     2.59748633       adf.R=1.517
     38      O     4.50581064    -1.87111211     2.63892951       adf.R=1.517
     39      O     0.95465586    -4.92510170     3.44484007       adf.R=1.517
     40      W     0.01375750    -2.93786708     3.57876905       adf.R=1.992
[...]
                                    1.55%     3 D:xz           -4.382  0.80     1 W
                                    1.53%     3 D:xz           -4.382  0.80     3 W
                                    1.52%     2 P:z             0.126  0.00    50 Na
                                    1.52%     6 S              -6.463  2.00     5 W
                                    1.50%     2 P:z             0.126  0.00    46 Na
                                    1.47%     3 D:xy           -4.382  0.80     6 W
                                    1.28%     3 D:x2-y2        -4.382  0.80     4 W
                                    1.12%     7 S               1.678  0.00     4 W
                                    1.06%     3 D:z2           -4.382  0.80     4 W
                                    1.03%     3 D:z2           -4.382  0.80     2 W
                                    1.01%     1 P:x            -9.955  1.33    25 O
       2.407  0.00   581 A          8.69%     3 D:z2           -4.382  0.80     9 W
                                    7.85%     4 S               0.705  0.00    49 Na
                                    7.17%     4 S               0.705  0.00    48 Na
                                    4.28%     3 D:xz           -4.382  0.80     3 W
                                    3.85%     6 S              -6.463  2.00     9 W
                                    3.84%     2 P:x             0.126  0.00    53 Na
                                    3.78%     6 S              -6.463  2.00     3 W
                                    2.90%     2 P:z             0.126  0.00    49 Na
                                    2.32%     1 P:z            -9.955  1.33    20 O
                                    2.15%     2 P:x             0.126  0.00    48 Na
                                    2.09%     3 D:x2-y2        -4.382  0.80     7 W
                                    1.72%     2 P:z             0.126  0.00    53 Na
                                    1.60%     3 D:xz           -4.382  0.80     6 W
                                    1.59%     3 D:xy           -4.382  0.80     3 W
                                    1.54%     2 P:z             0.126  0.00    51 Na
                                    1.41%     3 D:x2-y2        -4.382  0.80     4 W
                                    1.39%     3 D:z2           -4.382  0.80     5 W
                                    1.36%     7 S               1.678  0.00     9 W
                                    1.29%     3 D:x2-y2        -4.382  0.80     3 W
                                    1.26%     3 D:xy           -4.382  0.80     2 W
                                    1.24%     2 P:y             0.126  0.00    52 Na
                                    1.17%     2 P:x             0.126  0.00    52 Na
                                    1.08%     1 P:x            -9.955  1.33    33 O
       2.424  0.00   582 A          7.67%     3 D:z2           -4.382  0.80     9 W
                                    6.16%     4 S               0.705  0.00    50 Na
                                    4.55%     3 D:xz           -4.382  0.80     7 W
                                    4.36%     2 P:z             0.126  0.00    51 Na
                                    4.05%     3 D:x2-y2        -4.382  0.80     4 W
                                    3.89%     2 P:y             0.126  0.00    48 Na
                                    3.75%     3 D:xz           -4.382  0.80     3 W
                                    3.75%     4 S               0.705  0.00    48 Na
                                    3.56%     4 S               0.705  0.00    46 Na
                                    3.19%     2 P:z             0.126  0.00    52 Na
                                    3.02%     4 S               0.705  0.00    49 Na
                                    2.97%     2 P:z             0.126  0.00    49 Na
                                    2.65%     2 P:y             0.126  0.00    50 Na
                                    2.10%     2 P:x             0.126  0.00    46 Na
                                    1.90%     1 P:z            -9.955  1.33    20 O
                                    1.86%     2 P:x             0.126  0.00    52 Na
                                    1.85%     1 P:z            -9.955  1.33    34 O
                                    1.73%     3 D:yz           -4.382  0.80     3 W
                                    1.64%     2 P:y             0.126  0.00    53 Na
                                    1.61%     3 D:xz           -4.382  0.80     4 W
                                    1.58%     2 P:z             0.126  0.00    48 Na
                                   -1.51%     3 S              -2.751  1.00    50 Na
                                    1.38%     1 P:x            -9.955  1.33    38 O
                                    1.32%     7 S               1.678  0.00     7 W
                                    1.26%     1 P:x            -9.955  1.33    18 O
                                    1.21%     2 P:z             0.126  0.00    53 Na
                                    1.21%     3 D:yz           -4.382  0.80     7 W
                                    1.10%     1 S              -6.581  1.00    45 H
       2.487  0.00   583 A         20.45%     4 S               0.705  0.00    46 Na
                                   20.31%     4 S               0.705  0.00    47 Na
                                   15.97%     2 P:y             0.126  0.00    49 Na
                                   -8.00%     3 S              -2.751  1.00    47 Na
                                   -7.16%     3 S              -2.751  1.00    46 Na
                                    6.63%     2 P:x             0.126  0.00    48 Na
                                    4.40%     2 P:x             0.126  0.00    50 Na
                                    3.73%     6 S              -6.463  2.00     1 W
                                    2.36%     2 P:x             0.126  0.00    46 Na
                                    2.32%     2 P:x             0.126  0.00    52 Na
                                    2.29%     2 P:z             0.126  0.00    47 Na
                                    2.11%     7 S               1.678  0.00     9 W
                                    2.05%     2 P:y             0.126  0.00    46 Na
                                    1.97%     2 P:x             0.126  0.00    53 Na
                                    1.86%     2 P:y             0.126  0.00    48 Na
                                    1.64%     6 S              -6.463  2.00     2 W
                                    1.61%     2 P:y             0.126  0.00    53 Na
                                    1.32%     6 S              -6.463  2.00     9 W
                                    1.32%     3 D:x2-y2        -4.382  0.80     9 W
                                    1.23%     2 P:y             0.126  0.00    52 Na
                                    1.21%     2 P:y             0.126  0.00    47 Na
                                    1.19%     2 P:x             0.126  0.00    49 Na
                                    1.11%     6 S              -6.463  2.00     3 W
       2.584  0.00   584 A          6.12%     2 P:y             0.126  0.00    48 Na
                                    5.61%     2 P:y             0.126  0.00    50 Na
                                    5.60%     2 P:x             0.126  0.00    50 Na
                                    4.69%     2 P:y             0.126  0.00    53 Na
                                    4.33%     2 P:z             0.126  0.00    46 Na
                                    4.27%     4 S               0.705  0.00    47 Na
                                    4.10%     2 P:z             0.126  0.00    49 Na
                                    4.02%     3 D:xz           -4.382  0.80     1 W
                                    3.81%     2 P:z             0.126  0.00    48 Na
                                    3.55%     7 S               1.678  0.00     7 W
                                    3.44%     2 P:z             0.126  0.00    50 Na
                                    3.35%     2 P:y             0.126  0.00    47 Na
                                    3.28%     3 D:xy           -4.382  0.80     2 W
                                    2.89%     6 S              -6.463  2.00     7 W
                                    2.55%     2 P:z             0.126  0.00    53 Na
                                    2.20%     2 P:x             0.126  0.00    47 Na
                                    2.03%     6 S              -6.463  2.00     2 W
                                    1.66%     7 S               1.678  0.00     3 W
                                    1.64%     7 S               1.678  0.00     4 W
                                    1.57%     4 D:yz            4.723  0.00     1 W
                                    1.56%     2 P:y             0.126  0.00    49 Na
                                    1.35%     6 S              -6.463  2.00     3 W
                                    1.26%     3 D:x2-y2        -4.382  0.80     4 W
                                   -1.21%     5 P:z             0.094  0.00     1 W
                                    1.18%     7 S               1.678  0.00     6 W
                                    1.16%     3 D:x2-y2        -4.382  0.80     6 W
                                    1.10%     3 D:xy           -4.382  0.80     6 W
                                    1.09%     3 D:z2           -4.382  0.80     2 W
                                    1.07%     7 S               1.678  0.00     5 W
                                    1.05%     3 D:yz           -4.382  0.80     1 W

 Energy gradients wrt nuclear displacements
 ==========================================

     Atom      Cartesian (a.u./angstrom)
                 X         Y         Z
 ----------------------------------------
     1 W    -0.000196  0.000041  0.000503
     2 O     0.000065  0.000083  0.000086
     3 W    -0.000053  0.000265  0.000114
     4 W     0.000274  0.000015 -0.000334
     5 W    -0.000160 -0.000269  0.000122
     6 W    -0.000746  0.001022 -0.000163
     7 W    -0.000140  0.000197  0.000388
     8 O     0.000102 -0.000383 -0.000058
     9 O     0.000088  0.000065  0.000013
    10 O    -0.000187  0.000081 -0.000089
    11 O     0.000120 -0.000222  0.000036
    12 O     0.000071 -0.000102 -0.000088
    13 O    -0.000092  0.000020  0.000006
    14 O     0.000051 -0.000042 -0.000121
    15 O    -0.000131 -0.000144 -0.000072
    16 O     0.000189  0.000095 -0.000097
    17 O     0.000033 -0.000145  0.000140
    18 O     0.000125 -0.000234 -0.000094
    19 O     0.000162 -0.000020 -0.000180
    20 O    -0.000054  0.000140 -0.000073
    21 O     0.000141 -0.000090 -0.000095
    22 W     0.000197 -0.000037  0.000194
    23 O     0.000112  0.000359  0.000019
    24 O    -0.000113 -0.000193 -0.000096
    25 O    -0.000002  0.000342 -0.000043
    26 O     0.000073  0.000362  0.000111
    27 O    -0.000022 -0.000193 -0.000150
    28 O     0.000045 -0.000074 -0.000181
    29 O     0.000238 -0.000195  0.000008
    30 P    -0.000099  0.000010  0.000055
    31 O    -0.000105 -0.000193  0.000319
    32 O    -0.000115 -0.000023  0.000049
    33 O     0.000111  0.000037  0.000025
    34 W    -0.000072 -0.000302 -0.000094
    35 O    -0.000433 -0.000183  0.000008
    36 O    -0.000036  0.000103  0.000101
    37 O     0.000030 -0.000232 -0.000004
    38 O     0.000091 -0.000071  0.000191
    39 O     0.000102  0.000046 -0.000135
    40 W     0.000257 -0.000135  0.000032
    41 O     0.000081  0.000007  0.000014
    42 O    -0.000169  0.000061 -0.000060
    43 O     0.000115 -0.000034 -0.000129
    44 O     0.000060  0.000068 -0.000104
    45 H     0.000031  0.000093  0.000113
    46 Na   -0.000168 -0.000031 -0.000122
    47 Na    0.000391 -0.000025  0.000255
    48 Na   -0.000102  0.000192 -0.000113
    49 Na    0.000066 -0.000016 -0.000050
    50 Na   -0.000069 -0.000141 -0.000073
    51 Na   -0.000025  0.000069 -0.000034
    52 Na   -0.000022 -0.000195 -0.000075
    53 Na   -0.000110  0.000148  0.000024
 ----------------------------------------



 =======================================================================
 Electrostatic potential at the Nuclei due to electrons and other nuclei
 =======================================================================
  
         Atom                  Potential
         ----                  ---------
     1)   W                 553.20679114
     2)   O                  22.45178751
     3)   W                 553.20672084
     4)   W                 553.23921875
     5)   W                 553.24569772
     6)   W                 553.22009673
     7)   W                 553.25540454
     8)   O                  22.37244216
     9)   O                  22.42323750
    10)   O                  22.43559443
    11)   O                  22.36011656
    12)   O                  22.36768171
    13)   O                  22.36756094
    14)   O                  22.38732341
    15)   O                  22.39268865
    16)   O                  22.37226707
    17)   O                  22.42242488
    18)   O                  22.41058016
    19)   O                  22.37483145
    20)   O                  22.37310375
    21)   O                  22.40845986
    22)   W                 553.23874698
    23)   O                  22.37310865
    24)   O                  22.37675233
    25)   O                  22.37132434
    26)   O                  22.42430066
    27)   O                  22.39205803
    28)   O                  22.37301596
    29)   O                  22.39545794
    30)   P                  54.33039015
    31)   O                  22.38336756
    32)   O                  22.41881238
    33)   O                  22.38830608
    34)   W                 553.20047952
    35)   O                  22.37304880
    36)   O                  22.42112836
    37)   O                  22.37483150
    38)   O                  22.42148477
    39)   O                  22.37175769
    40)   W                 553.24172044
    41)   O                  22.37575806
    42)   O                  22.41572007
    43)   O                  22.43005622
    44)   O                  22.39387655
    45)   H                   0.99962039
    46)   Na                 35.54965256
    47)   Na                 35.56093153
    48)   Na                 35.50829709
    49)   Na                 35.51352482
    50)   Na                 35.51566506
    51)   Na                 35.48544113
    52)   Na                 35.48516070
    53)   Na                 35.47918191
 Mulliken charges used for AMS results%charges...


    =====================
     CALCULATION RESULTS
    =====================

Energy (hartree)           -18.89169087

Gradients (hartree/bohr)
  Index   Atom            d/dx            d/dy            d/dz
      1      W   -0.0001038022    0.0000217112    0.0002660961
      2      O    0.0000344535    0.0000441452    0.0000454536
      3      W   -0.0000282946    0.0001402938    0.0000601463
      4      W    0.0001451110    0.0000078409   -0.0001768187
      5      W   -0.0000848729   -0.0001425576    0.0000643911
      6      W   -0.0003946887    0.0005407114   -0.0000864341
      7      W   -0.0000742590    0.0001044435    0.0002054817
      8      O    0.0000539136   -0.0002027918   -0.0000309478
      9      O    0.0000464901    0.0000344479    0.0000070226
     10      O   -0.0000990113    0.0000430132   -0.0000469593
     11      O    0.0000632682   -0.0001176471    0.0000193095
     12      O    0.0000374741   -0.0000539661   -0.0000465046
     13      O   -0.0000488806    0.0000107804    0.0000033083
     14      O    0.0000269390   -0.0000221392   -0.0000641581
     15      O   -0.0000690912   -0.0000760814   -0.0000382573
     16      O    0.0001000809    0.0000501856   -0.0000513097
     17      O    0.0000173496   -0.0000764860    0.0000740591
     18      O    0.0000661159   -0.0001239644   -0.0000496040
     19      O    0.0000858305   -0.0000105578   -0.0000951861
     20      O   -0.0000283862    0.0000742975   -0.0000386438
     21      O    0.0000747858   -0.0000474347   -0.0000500897
     22      W    0.0001040200   -0.0000196280    0.0001028697
     23      O    0.0000594118    0.0001899151    0.0000100830
     24      O   -0.0000595553   -0.0001019308   -0.0000510157
     25      O   -0.0000012378    0.0001811188   -0.0000225554
     26      O    0.0000386429    0.0001916257    0.0000587007
     27      O   -0.0000116045   -0.0001022535   -0.0000793225
     28      O    0.0000239140   -0.0000391524   -0.0000959913
     29      O    0.0001258325   -0.0001033660    0.0000039931
     30      P   -0.0000526117    0.0000050839    0.0000292307
     31      O   -0.0000554689   -0.0001021773    0.0001686438
     32      O   -0.0000607164   -0.0000122370    0.0000258977
     33      O    0.0000587789    0.0000193356    0.0000132228
     34      W   -0.0000382218   -0.0001597216   -0.0000498742
     35      O   -0.0002290771   -0.0000968018    0.0000043033
     36      O   -0.0000191557    0.0000544316    0.0000535039
     37      O    0.0000161105   -0.0001225667   -0.0000022820
     38      O    0.0000481329   -0.0000377127    0.0001009103
     39      O    0.0000541292    0.0000242857   -0.0000712161
     40      W    0.0001358500   -0.0000712207    0.0000168561
     41      O    0.0000429801    0.0000038497    0.0000074624
     42      O   -0.0000893529    0.0000324881   -0.0000314995
     43      O    0.0000606980   -0.0000178744   -0.0000680386
     44      O    0.0000316431    0.0000362200   -0.0000548099
     45      H    0.0000163959    0.0000490834    0.0000598004
     46     Na   -0.0000890982   -0.0000163239   -0.0000643007
     47     Na    0.0002071622   -0.0000133355    0.0001351991
     48     Na   -0.0000540047    0.0001015230   -0.0000598247
     49     Na    0.0000350348   -0.0000082592   -0.0000263839
     50     Na   -0.0000366286   -0.0000745116   -0.0000383897
     51     Na   -0.0000130276    0.0000365221   -0.0000182310
     52     Na   -0.0000115511   -0.0001032015   -0.0000399501
     53     Na   -0.0000579503    0.0000785473    0.0000126533


--------------
Atomic charges
--------------
  Index   Atom    Charge
      1      W    2.8189
      2      O   -0.8335
      3      W    2.8056
      4      W    2.6549
      5      W    2.6687
      6      W    2.7706
      7      W    2.6192
      8      O   -1.1430
      9      O   -0.9112
     10      O   -0.9290
     11      O   -1.1537
     12      O   -0.8175
     13      O   -1.1759
     14      O   -1.1845
     15      O   -1.1611
     16      O   -1.1832
     17      O   -0.8558
     18      O   -0.7686
     19      O   -1.0629
     20      O   -1.1467
     21      O   -1.0269
     22      W    2.6668
     23      O   -1.0875
     24      O   -0.8304
     25      O   -1.0662
     26      O   -0.9243
     27      O   -1.1889
     28      O   -1.1445
     29      O   -1.1395
     30      P    2.4353
     31      O   -1.1701
     32      O   -0.8532
     33      O   -1.1576
     34      W    2.8269
     35      O   -1.1806
     36      O   -0.9236
     37      O   -0.8265
     38      O   -0.8515
     39      O   -1.1374
     40      W    2.6513
     41      O   -1.1368
     42      O   -0.8499
     43      O   -0.8600
     44      O   -0.8032
     45      H    0.2782
     46     Na    0.8821
     47     Na    0.8793
     48     Na    0.9352
     49     Na    0.9430
     50     Na    0.9374
     51     Na    0.9031
     52     Na    0.9054
     53     Na    0.9035


Dipole moment vector    (Debye):     2.21588732  -13.85934312   -0.18950078
              magnitude (Debye):    14.03664699


AMS application finished. Exiting.
NORMAL TERMINATION
     Total cpu time:  134183.35
  Total system time:    7663.38
 Total elapsed time:  142691.89
