

 Parallel Execution: Process Information
 ==============================================================================
 Rank   Node Name                              NodeID   MyNodeRank  NodeMaster
    0   node024.hpc.strath.ac.uk                  0          0          0
    1   node024.hpc.strath.ac.uk                  0          1         -1
    2   node024.hpc.strath.ac.uk                  0          2         -1
    3   node024.hpc.strath.ac.uk                  0          3         -1
    4   node024.hpc.strath.ac.uk                  0          4         -1
    5   node024.hpc.strath.ac.uk                  0          5         -1
    6   node024.hpc.strath.ac.uk                  0          6         -1
 ==============================================================================


May use up to 46122MB of RAM as shared memory on node 0

 *******************************************************************************
 *                                                                             *
 *  --------------------------------                                           *
 *   Amsterdam Modeling Suite (AMS)              2021.106                      *
 *  --------------------------------                                           *
 *                                               r99350 2021-12-03             *
 *                                                                             *
 *                                                                             *
 *                              =================                              *
 *                              |               |                              *
 *                              |     A M S     |                              *
 *                              |               |                              *
 *                              =================                              *
 *                                                                             *
 *                                                                             *
 *   Online information and documentation:  https://www.scm.com/support/       *
 *   E-mail:  support@scm.com   info@scm.com                                   *
 *                                                                             *
 *   Scientific publications using AMS results must be properly referenced     *
 *   See the User Manuals (or the web site) for recommended citations          *
 *   The terms and conditions of the End User License Agreement apply to       *
 *   the use of AMS, https://www.scm.com/license-terms/                        *
 *                                                                             *
 ***********************  x86_64_linux_intel / openmpi  ************************
 
 Licensed to: Dr. Laia Vila-Nadal / Glasgow University / Glasgow / UNITED KINGDOM 2022-11-04 12:36:29
 SCM User ID: u23786
  
 AMS 2021.106  RunTime: Apr27-2023 19:11:02  ShM Nodes: 1  Procs: 7

 AMS jobname: ams
 AMS jobid  : 1773204292

 Start   directory: /users/djb20200/ADF/TM_POM/Tungsten_Addenda_Metal/Lacunary/New/Cations/PW12/PW9/Hybrid/tmp.djb20200.826132.0.noindex/
 Results directory: /users/djb20200/ADF/TM_POM/Tungsten_Addenda_Metal/Lacunary/New/Cations/PW12/PW9/Hybrid/pbe0-Na8Hb-PW9.results/
 Scratch directory: /tmp/amstmp_ams_kid0.1773204292/


 Communication costs MPI_COMM_WORLD:      1.541 usec per message,   0.0286 usec per 8-byte item
 Communication costs for intra-node:      1.649 usec per message,   0.0282 usec per 8-byte item

 RNG seed: 25492774 903554402 -1407048599 -42222567 2135661398 1437256367 274585083 2081349929



                      ************************************************************************
                      *  ADF 2021.106  RunTime: Apr27-2023 19:11:03  ShM Nodes: 1  Procs: 7  *
                      ************************************************************************
  
       ***************************
       *  GEOMETRY OPTIMIZATION  *
       ***************************

Optimization Method                    Quasi Newton
Optimization Coordinates               Delocalized Coordinates
Optimize lattice                       F
 
 ------------------------------------------------------
 Convergence criteria (Hartree,Angstrom)
 ------------------------------------------------------
 Maximum gradient               0.001000000000
 Maximum rms gradient           0.000666666667
 Maximum step allowed           0.010000000000
 Maximum rms step allowed       0.006666666667
 Maximum energy change allowe   0.000530000000
 Maximum stress energy allowe   0.000500000000
 
Initial model Hessian                  Automatic Hessian
 
------------------------------------
Quasi-Newton Optimizer Parameters
------------------------------------
Hessian Update Method                  BFGS
Maximum number of steps                  318
First GDIIS cycle                          0
Maximum GDIIS vectors                      0
Trust radius (bohr)                        0.200000
Trust radius varies                        T
Constraints converged at all steps         T
Use projector                              T
 
 Rigid motions settings for: old optimizer
 Atomic rotations (x,y,z):     T T T
 Atomic translations (x,y,z):  T T T
 Tolerance:                   1.000000000000000E-006
 
--------
Geometry
--------
Formula: HNa8O34PW9
Atoms
  Index Symbol   x (angstrom)   y (angstrom)   z (angstrom)
      1      W    -4.25060867    -4.94770087     9.73217298       adf.R=1.992
      2      W    -0.09020813    -1.90017425    10.87172686       adf.R=1.992
      3      W    -2.10072965     1.04399038    10.79222572       adf.R=1.992
      4      W    -6.40605279    -1.77627754     9.58546570       adf.R=1.992
      5      W    -2.68438129    -1.58061155     8.46840934       adf.R=1.992
      6      O    -2.60941324    -1.44741169    11.04183563       adf.R=1.517
      7      O    -2.32077381     0.30604839     8.95863536       adf.R=1.517
      8      O    -4.52128381    -1.22226676     8.75557788       adf.R=1.517
      9      O    -0.80376281    -1.90843998     9.02407958       adf.R=1.517
     10      O    -2.59112461    -1.57788557     6.70295208       adf.R=1.517
     11      O    -5.56853864    -3.54647048     9.50518725       adf.R=1.517
     12      O    -6.39247105     0.12526090    10.16694177       adf.R=1.517
     13      O    -3.99202355     1.21968210    10.86947389       adf.R=1.517
     14      O    -0.37300602     0.06497081    10.81421517       adf.R=1.517
     15      O    -7.70516746    -2.29794544    10.70791154       adf.R=1.517
     16      O    -0.60691044    -3.72093548    11.01239900       adf.R=1.517
     17      O    -7.24480144    -1.66562849     8.04151596       adf.R=1.517
     18      O    -1.59647669     2.69462082    10.44528321       adf.R=1.517
     19      O    -4.37426681    -5.73694903     8.14441429       adf.R=1.517
     20      O    -3.00016445    -3.42931472     8.76900302       adf.R=1.517
     21      W    -5.82199921     0.79648322    11.93151876       adf.R=1.992
     22      W    -1.69945410    -5.24645473    12.12163483       adf.R=1.992
     23      O     1.64301340    -2.05018677    10.59302676       adf.R=1.517
     24      O    -2.72545199     2.10588933    15.27446896       adf.R=1.517
     25      P    -3.67954064    -2.18981687    11.87137909       adf.R=1.850
     26      O    -3.21766761    -1.85444129    13.43612060       adf.R=1.517
     27      O    -5.10667214    -1.62031646    11.73573476       adf.R=1.517
     28      O    -3.62767400    -3.72387360    11.73333243       adf.R=1.517
     29      O    -2.48090554    -5.60343156    10.34203832       adf.R=1.517
     30      O    -5.23249704    -5.99868986    10.79309438       adf.R=1.517
     31      O     0.56568950    -2.67031057    15.44166851       adf.R=1.517
     32      O    -0.13814857    -1.76928659    12.77985394       adf.R=1.517
     33      O    -1.17133596    -4.06140980    13.57548958       adf.R=1.517
     34      O    -0.25487118    -6.27143317    12.08336457       adf.R=1.517
     35      O    -4.56601046     0.88114255    13.42923370       adf.R=1.517
     36      O    -7.14434104     0.03983289    12.87322815       adf.R=1.517
     37      O    -2.04612365     1.03084944    12.69852851       adf.R=1.517
     38      O    -3.93261620    -0.38771178    15.77255438       adf.R=1.517
     39      O    -6.28457693     2.50207593    11.86220112       adf.R=1.517
     40      O    -2.87190798    -6.21665697    13.05904943       adf.R=1.517
     41      O    -1.30979330    -0.46501297    14.83343622       adf.R=1.517
     42      W    -3.00441408     0.51619981    14.55503884       adf.R=1.992
     43      W    -0.97909251    -2.41233676    14.62981252       adf.R=1.992
     44      O    -2.21323690    -2.90554196    15.81503587       adf.R=1.517
     45     Na    -7.34159608    -2.27412375    12.98736203       adf.R=2.250
     46     Na    -3.77371683     3.21248174    12.76656103       adf.R=2.250
     47     Na    -5.01748655    -7.03717647    12.84396523       adf.R=2.250
     48     Na    -0.85821251    -4.53082456     8.78202770       adf.R=2.250
     49     Na     0.26437822     0.57559294    13.24522468       adf.R=2.250
     50     Na    -4.76145337     1.17458859     8.59082314       adf.R=2.250
     51     Na     1.31029486    -4.23258117    12.74922985       adf.R=2.250
     52     Na    -4.31060454    -3.73062181     6.65424182       adf.R=2.250
     53      H    -3.77971387    -2.29794500    14.11486687       adf.R=1.350
 
Total System Charge             0.00000
Bonding info available!
 
 
----------------
ADF Engine Input
----------------
 
 Basis
 Type TZP
 Core None
 End
 XC
 Hybrid PBE0
 End
 Solvation
 Surf Delley
 Solv name=Water cav0=0.0 cav1=0.0067639
 Charged method=CONJ
 C-Mat POT
 SCF VAR ALL
 CSMRSP
 End
 NumericalQuality Good
 

 Title: *** (NO TITLE) ***

 Using automatic Hessian for delocalized coordinates.
 *** GOStep1 ***

 SOLVATION
-------------------------------------------

  The Delley construction of COSMO surface surface is calculated

       Division Level for Surface Triangles (NDIV)                  3
       Final Division Level for Triangles (NFDIV)                   1
       Radius of the Solvent (RSOL)                           1.93000 angstr
  Dielectric Constant (EPSL)                                 78.39000

       COSMO equation is solved iteratively-               conjugate-gradient

       Maximun of Iterations for Charges (NCIX)                  1000
       Criterion for Charge convergence (CCNV)                1.0E-08

  COSMO charges included variationally in SCF

       COSMO included at every SCF cycle

  Geometry-dependent empirical factor                         0.00000

  C-Matrix calculated in cspmtx

  In cspmtx, C-Matrix calculated using fitted potential

-------------------------------------------



 -------------------------------------------
  COSMO surface
  Area             =         1854.958
  Volume           =         5638.435
  Number of Points =         3887
 -------------------------------------------



 ======================
 RI Hartree-Fock Scheme
 ======================
  
 Fit Set Quality     : GOOD
 Integration Quality : GOOD
 Threshold Quality   : GOOD
 Response Quality    : DEFAULT
 Is Range Separated  :  F
 
 RIHartreeFock Dependency: number of modified vectors:           6
 cosmo_calcen: 0.5 (esolb+esolc) (Hartrees) =   -0.183241

 Solvation energy (screening term,uncorrected) =   -114.985624 kcal/mol

 Solvation energy (dispersion and cavitation terms) =      3.468628 kcal/mol
 Solvation Energy Contributions (Hartrees)
          esola   esolb+esolc
     0.18324124   -0.36648247
 esol last cycle   -0.18324124
  
 Hartree-Fock exchange energy:   -3316.79141199930     
 cosmo_calcen: 0.5 (esolb+esolc) (Hartrees) =   -0.183241

 Solvation energy (screening term,uncorrected) =   -114.985585 kcal/mol

 Solvation energy (dispersion and cavitation terms) =      3.468628 kcal/mol
 Solvation Energy Contributions (Hartrees)
          esola   esolb+esolc
     0.18324117   -0.36648235
 esol last cycle   -0.18324117
  pauli hf:                            -13.274956146758768       -361.2299         -8330.16        -34853.39
  elstat hf:                            -5.452563771380710       -148.3718         -3421.54        -14315.70

 Energy gradients wrt nuclear displacements
 ==========================================

     Atom      Cartesian (a.u./angstrom)
                 X         Y         Z
 ----------------------------------------
     1 W     0.036626  0.052631  0.020176
     2 W    -0.045748  0.016378 -0.003650
     3 W    -0.002041 -0.048658 -0.002140
     4 W     0.065566  0.013654  0.020597
     5 W     0.013101  0.009478  0.043533
     6 O     0.017486  0.012653 -0.010803
     7 O     0.005928  0.022226 -0.025432
     8 O    -0.032398  0.010264 -0.001246
     9 O     0.022689 -0.003564 -0.026137
    10 O     0.005726  0.001310 -0.093479
    11 O    -0.014680 -0.005063 -0.006520
    12 O    -0.016531  0.019574 -0.020301
    13 O    -0.032520  0.008712 -0.004035
    14 O     0.027392  0.018751 -0.004338
    15 O    -0.063239 -0.025209  0.045021
    16 O    -0.005032 -0.034867 -0.002024
    17 O    -0.045543  0.005369 -0.082066
    18 O     0.027965  0.090232 -0.019445
    19 O    -0.006716 -0.042929 -0.076381
    20 O    -0.001095 -0.035141  0.002147
    21 W     0.052616 -0.035805 -0.026952
    22 W    -0.014809  0.061375 -0.029154
    23 O     0.094508 -0.007678 -0.015529
    24 O     0.013795  0.080716  0.038418
    25 P     0.001240  0.000871 -0.003339
    26 O     0.014180  0.011190  0.011083
    27 O    -0.030078  0.007927  0.003074
    28 O    -0.003445 -0.030310  0.004538
    29 O     0.014412 -0.023077 -0.019033
    30 O    -0.049452 -0.047992  0.044667
    31 O     0.079293 -0.013705  0.043514
    32 O     0.006975  0.005893  0.028888
    33 O     0.004383 -0.007479  0.013137
    34 O     0.071916 -0.054682 -0.001951
    35 O    -0.007698  0.005983  0.010599
    36 O    -0.063267 -0.028636  0.045231
    37 O     0.006541  0.005613  0.030854
    38 O    -0.048074 -0.045467  0.063210
    39 O    -0.026262  0.087483 -0.003774
    40 O    -0.049669 -0.044957  0.046596
    41 O     0.021993  0.014908  0.015028
    42 W     0.023792 -0.022801 -0.061095
    43 W    -0.010339  0.026086 -0.063366
    44 O    -0.062026 -0.025697  0.060908
    45 Na   -0.000771 -0.008125  0.009412
    46 Na    0.001419  0.006670  0.000885
    47 Na   -0.006999 -0.006723  0.006378
    48 Na    0.007405 -0.005829 -0.008854
    49 Na    0.009440  0.006660  0.003328
    50 Na   -0.002452  0.008068 -0.008910
    51 Na    0.007510 -0.000255  0.001878
    52 Na   -0.002811  0.002201 -0.006437
    53 H    -0.010200 -0.008230  0.013291
 ----------------------------------------
 Mulliken charges used for AMS results%charges...
 
----------------------------------------------------------------------
Geometry Convergence after Step   1       (Hartree/Angstrom,Angstrom)
----------------------------------------------------------------------
current energy                              -18.77053485 Hartree
energy change                     -18.77053485     0.00053000    F
constrained gradient max            0.09450912     0.00100000    F
constrained gradient rms            0.03311443     0.00066667    F
gradient max                        0.09450912
gradient rms                        0.03311443
cart. step max                      0.02773669     0.01000000    F
cart. step rms                      0.00913017     0.00666667    F
 
 
--------
Geometry
--------
Formula: HNa8O34PW9
Atoms
  Index Symbol   x (angstrom)   y (angstrom)   z (angstrom)
      1      W    -4.25011895    -4.94005097     9.73684098       adf.R=1.992
      2      W    -0.09827146    -1.90230728    10.87315601       adf.R=1.992
      3      W    -2.10441934     1.03744796    10.79450206       adf.R=1.992
      4      W    -6.40027659    -1.77960874     9.59046759       adf.R=1.992
      5      W    -2.68579187    -1.58322017     8.47534719       adf.R=1.992
      6      O    -2.61440804    -1.45115304    11.04479166       adf.R=1.517
      7      O    -2.32300976     0.29946571     8.96564809       adf.R=1.517
      8      O    -4.51769042    -1.22587254     8.76137595       adf.R=1.517
      9      O    -0.81198615    -1.90973427     9.03226555       adf.R=1.517
     10      O    -2.59085248    -1.58106350     6.72284088       adf.R=1.517
     11      O    -5.56379329    -3.54361644     9.51078419       adf.R=1.517
     12      O    -6.38762512     0.11801691    10.17236016       adf.R=1.517
     13      O    -3.99001263     1.21232636    10.87214461       adf.R=1.517
     14      O    -0.38112762     0.05938902    10.81526445       adf.R=1.517
     15      O    -7.68119858    -2.29478442    10.69890686       adf.R=1.517
     16      O    -0.61410523    -3.71620428    11.01425568       adf.R=1.517
     17      O    -7.23395709    -1.67133570     8.06126793       adf.R=1.517
     18      O    -1.60400762     2.67479205    10.45011285       adf.R=1.517
     19      O    -4.37121333    -5.72416143     8.16662895       adf.R=1.517
     20      O    -3.00003515    -3.42371368     8.77518860       adf.R=1.517
     21      W    -5.81797033     0.78941923    11.93311800       adf.R=1.992
     22      W    -1.70446416    -5.23905306    12.12206820       adf.R=1.992
     23      O     1.62262069    -2.05135761    10.59408075       adf.R=1.517
     24      O    -2.73161019     2.08730546    15.26674069       adf.R=1.517
     25      P    -3.67968703    -2.18960469    11.87113570       adf.R=1.850
     26      O    -3.22032427    -1.85637115    13.42986522       adf.R=1.517
     27      O    -5.09935862    -1.62407106    11.73710022       adf.R=1.517
     28      O    -3.62863073    -3.71375277    11.73469441       adf.R=1.517
     29      O    -2.48627383    -5.59248752    10.34863947       adf.R=1.517
     30      O    -5.21956378    -5.97529352    10.78406220       adf.R=1.517
     31      O     0.54895298    -2.67025389    15.43268493       adf.R=1.517
     32      O    -0.14544567    -1.77163359    12.77745911       adf.R=1.517
     33      O    -1.17718398    -4.05778217    13.57241478       adf.R=1.517
     34      O    -0.27703417    -6.25633390    12.08264834       adf.R=1.517
     35      O    -4.56469189     0.87374038    13.42690471       adf.R=1.517
     36      O    -7.12148245     0.04159045    12.86243476       adf.R=1.517
     37      O    -2.05029721     1.02455461    12.69599546       adf.R=1.517
     38      O    -3.92198338    -0.38129990    15.75055523       adf.R=1.517
     39      O    -6.27963885     2.48070380    11.86563411       adf.R=1.517
     40      O    -2.86190687    -6.19441184    13.04745995       adf.R=1.517
     41      O    -1.31578437    -0.46970412    14.82901078       adf.R=1.517
     42      W    -3.00702932     0.51072479    14.55086719       adf.R=1.992
     43      W    -0.98443878    -2.41337199    14.62532679       adf.R=1.992
     44      O    -2.20172808    -2.89924561    15.79365806       adf.R=1.517
     45     Na    -7.31385939    -2.26998193    12.97474715       adf.R=2.250
     46     Na    -3.77532440     3.20403957    12.76641978       adf.R=2.250
     47     Na    -5.00618545    -7.01061929    12.83362081       adf.R=2.250
     48     Na    -0.86571199    -4.52696172     8.78736633       adf.R=2.250
     49     Na     0.25762310     0.57102738    13.24317568       adf.R=2.250
     50     Na    -4.76042938     1.16818346     8.59640210       adf.R=2.250
     51     Na     1.30061896    -4.23213757    12.74729544       adf.R=2.250
     52     Na    -4.30807303    -3.73092721     6.66234348       adf.R=2.250
     53      H    -3.77970754    -2.29773105    14.10449270       adf.R=1.350
 
Total System Charge             0.00000
Bonding info available!
 
 *** GOStep2 ***

 SOLVATION
-------------------------------------------

  The Delley construction of COSMO surface surface is calculated

       Division Level for Surface Triangles (NDIV)                  3
       Final Division Level for Triangles (NFDIV)                   1
       Radius of the Solvent (RSOL)                           1.93000 angstr
  Dielectric Constant (EPSL)                                 78.39000

       COSMO equation is solved iteratively-               conjugate-gradient

       Maximun of Iterations for Charges (NCIX)                  1000
       Criterion for Charge convergence (CCNV)                1.0E-08

  COSMO charges included variationally in SCF

       COSMO included at every SCF cycle

  Geometry-dependent empirical factor                         0.00000

  C-Matrix calculated in cspmtx

  In cspmtx, C-Matrix calculated using fitted potential

-------------------------------------------



 -------------------------------------------
  COSMO surface
  Area             =         1846.793
  Volume           =         5598.766
  Number of Points =         3874
 -------------------------------------------



 ======================
 RI Hartree-Fock Scheme
 ======================
  
 Fit Set Quality     : GOOD
 Integration Quality : GOOD
 Threshold Quality   : GOOD
 Response Quality    : DEFAULT
 Is Range Separated  :  F
 
 RIHartreeFock Dependency: number of modified vectors:           6
 cosmo_calcen: 0.5 (esolb+esolc) (Hartrees) =   -0.181420

 Solvation energy (screening term,uncorrected) =   -113.842508 kcal/mol

 Solvation energy (dispersion and cavitation terms) =      3.453359 kcal/mol
 Solvation Energy Contributions (Hartrees)
          esola   esolb+esolc
     0.18141957   -0.36283913
 esol last cycle   -0.18141957
  
 Hartree-Fock exchange energy:   -3317.10475205017     
 cosmo_calcen: 0.5 (esolb+esolc) (Hartrees) =   -0.181419

 Solvation energy (screening term,uncorrected) =   -113.842457 kcal/mol

 Solvation energy (dispersion and cavitation terms) =      3.453359 kcal/mol
 Solvation Energy Contributions (Hartrees)
          esola   esolb+esolc
     0.18141948   -0.36283897
 esol last cycle   -0.18141948
  pauli hf:                            -14.126724746551417       -384.4077         -8864.65        -37089.71
  elstat hf:                            -5.568458975071621       -151.5255         -3494.26        -14619.99

 Energy gradients wrt nuclear displacements
 ==========================================

     Atom      Cartesian (a.u./angstrom)
                 X         Y         Z
 ----------------------------------------
     1 W     0.016992  0.025270  0.016072
     2 W    -0.030233  0.012747 -0.007514
     3 W     0.002538 -0.030298 -0.005704
     4 W     0.034595  0.004748  0.019178
     5 W     0.014025  0.006760  0.027493
     6 O     0.010508  0.007321 -0.005650
     7 O     0.005383  0.018954 -0.021872
     8 O    -0.029739  0.007851 -0.000345
     9 O     0.018463 -0.002976 -0.022042
    10 O     0.004418  0.000776 -0.071169
    11 O    -0.012664 -0.004983 -0.004774
    12 O    -0.015501  0.016237 -0.016808
    13 O    -0.029214  0.007168 -0.002295
    14 O     0.023447  0.016644 -0.004358
    15 O    -0.037431 -0.014964  0.022621
    16 O    -0.005541 -0.030989 -0.000508
    17 O    -0.032386  0.003427 -0.057206
    18 O     0.020740  0.067364 -0.014354
    19 O    -0.004514 -0.029516 -0.049360
    20 O    -0.001526 -0.029473  0.002701
    21 W     0.025753 -0.029150 -0.010990
    22 W    -0.013843  0.030225 -0.013325
    23 O     0.073441 -0.006079 -0.012138
    24 O     0.009682  0.057921  0.028029
    25 P    -0.002257 -0.002419 -0.005509
    26 O     0.008399  0.006401  0.009640
    27 O    -0.016814  0.002812  0.003513
    28 O    -0.003358 -0.014925  0.005116
    29 O     0.011069 -0.019644 -0.014449
    30 O    -0.028860 -0.025631  0.022058
    31 O     0.058893 -0.010323  0.032675
    32 O     0.005194  0.004088  0.027767
    33 O     0.002504 -0.007022  0.011319
    34 O     0.046384 -0.036490 -0.001343
    35 O    -0.007017  0.004247  0.009717
    36 O    -0.036340 -0.013283  0.026297
    37 O     0.004379  0.004616  0.028424
    38 O    -0.027396 -0.025352  0.035680
    39 O    -0.019718  0.063144 -0.002536
    40 O    -0.024549 -0.024312  0.026822
    41 O     0.018075  0.012316  0.014196
    42 W     0.008285 -0.020736 -0.030308
    43 W    -0.016747  0.013150 -0.033657
    44 O    -0.035291 -0.014928  0.034753
    45 Na   -0.000722 -0.007538  0.008798
    46 Na    0.001288  0.007169  0.000984
    47 Na   -0.006619 -0.006271  0.005985
    48 Na    0.007369 -0.005934 -0.009058
    49 Na    0.009829  0.006991  0.003449
    50 Na   -0.002606  0.008411 -0.009235
    51 Na    0.007854 -0.000685  0.001838
    52 Na   -0.002824  0.001884 -0.006720
    53 H    -0.005799 -0.004722  0.008102
 ----------------------------------------
 Mulliken charges used for AMS results%charges...

 dE(predicted):    -0.25425E-01, dE(actual):    -0.27481E-01, Trust radius:    0.400000, all in a.u.
 
----------------------------------------------------------------------
Geometry Convergence after Step   2       (Hartree/Angstrom,Angstrom)
----------------------------------------------------------------------
current energy                              -18.79801550 Hartree
energy change                      -0.02748065     0.00053000    F
constrained gradient max            0.07344257     0.00100000    F
constrained gradient rms            0.02219162     0.00066667    F
gradient max                        0.07344257
gradient rms                        0.02219162
cart. step max                      0.05561143     0.01000000    F
cart. step rms                      0.01814607     0.00666667    F
 
 
--------
Geometry
--------
Formula: HNa8O34PW9
Atoms
  Index Symbol   x (angstrom)   y (angstrom)   z (angstrom)
      1      W    -4.24612466    -4.92060122     9.74579609       adf.R=1.992
      2      W    -0.11800985    -1.90532147    10.87636046       adf.R=1.992
      3      W    -2.11171367     1.02063931    10.79859424       adf.R=1.992
      4      W    -6.38300146    -1.78448785     9.60129152       adf.R=1.992
      5      W    -2.68797042    -1.58781339     8.49272576       adf.R=1.992
      6      O    -2.62446012    -1.45817411    11.05097123       adf.R=1.517
      7      O    -2.32707957     0.28272485     8.98358992       adf.R=1.517
      8      O    -4.50465237    -1.23208190     8.77429846       adf.R=1.517
      9      O    -0.83228582    -1.91145508     9.05376306       adf.R=1.517
     10      O    -2.58723234    -1.58586888     6.76782287       adf.R=1.517
     11      O    -5.54911799    -3.53417810     9.52256781       adf.R=1.517
     12      O    -6.37084723     0.10250980    10.18380933       adf.R=1.517
     13      O    -3.98046832     1.19475354    10.87594774       adf.R=1.517
     14      O    -0.40131809     0.04517079    10.81690679       adf.R=1.517
     15      O    -7.63762443    -2.29102798    10.69164922       adf.R=1.517
     16      O    -0.62997544    -3.69983263    11.01869605       adf.R=1.517
     17      O    -7.20844293    -1.67989110     8.09864103       adf.R=1.517
     18      O    -1.61841981     2.63110989    10.45843599       adf.R=1.517
     19      O    -4.36278960    -5.69563896     8.20390660       adf.R=1.517
     20      O    -2.99783956    -3.40755983     8.78855195       adf.R=1.517
     21      W    -5.80453046     0.77382430    11.93400998       adf.R=1.992
     22      W    -1.71388990    -5.21984393    12.12120508       adf.R=1.992
     23      O     1.57509709    -2.05175789    10.59399784       adf.R=1.517
     24      O    -2.74202989     2.04959210    15.24635914       adf.R=1.517
     25      P    -3.67914963    -2.18813898    11.87154181       adf.R=1.850
     26      O    -3.22536144    -1.85991108    13.41525579       adf.R=1.517
     27      O    -5.08566632    -1.62997129    11.74001079       adf.R=1.517
     28      O    -3.62927746    -3.69500747    11.73666490       adf.R=1.517
     29      O    -2.49549380    -5.56341601    10.36132613       adf.R=1.517
     30      O    -5.19901922    -5.93473348    10.77606198       adf.R=1.517
     31      O     0.51419828    -2.66709583    15.41002830       adf.R=1.517
     32      O    -0.16192094    -1.77453807    12.76765533       adf.R=1.517
     33      O    -1.18909902    -4.04640502    13.56250419       adf.R=1.517
     34      O    -0.31384363    -6.22441087    12.07928775       adf.R=1.517
     35      O    -4.55792574     0.85670257    13.41707546       adf.R=1.517
     36      O    -7.08117037     0.03669956    12.84663711       adf.R=1.517
     37      O    -2.05777956     1.00942193    12.68489014       adf.R=1.517
     38      O    -3.90751289    -0.37987272    15.71240752       adf.R=1.517
     39      O    -6.26517211     2.43741859    11.86991982       adf.R=1.517
     40      O    -2.85286829    -6.15553915    13.03028533       adf.R=1.517
     41      O    -1.32850662    -0.47945000    14.81318622       adf.R=1.517
     42      W    -3.01049268     0.49785707    14.53631415       adf.R=1.992
     43      W    -0.99602447    -2.41292214    14.61111079       adf.R=1.992
     44      O    -2.19127489    -2.88810738    15.75698025       adf.R=1.517
     45     Na    -7.25824796    -2.26727988    12.95610696       adf.R=2.250
     46     Na    -3.77504621     3.18536558    12.76187892       adf.R=2.250
     47     Na    -4.99107437    -6.96352168    12.81999402       adf.R=2.250
     48     Na    -0.88651562    -4.50918854     8.80232904       adf.R=2.250
     49     Na     0.24329200     0.56208869    13.23469300       adf.R=2.250
     50     Na    -4.75401551     1.15462771     8.60796666       adf.R=2.250
     51     Na     1.28083094    -4.22771164    12.74052847       adf.R=2.250
     52     Na    -4.29972479    -3.72777643     6.67826457       adf.R=2.250
     53      H    -3.78131500    -2.29846073    14.08376923       adf.R=1.350
 
Total System Charge             0.00000
Bonding info available!
 
 *** GOStep3 ***

 SOLVATION
-------------------------------------------

  The Delley construction of COSMO surface surface is calculated

       Division Level for Surface Triangles (NDIV)                  3
       Final Division Level for Triangles (NFDIV)                   1
       Radius of the Solvent (RSOL)                           1.93000 angstr
  Dielectric Constant (EPSL)                                 78.39000

       COSMO equation is solved iteratively-               conjugate-gradient

       Maximun of Iterations for Charges (NCIX)                  1000
       Criterion for Charge convergence (CCNV)                1.0E-08

  COSMO charges included variationally in SCF

       COSMO included at every SCF cycle

  Geometry-dependent empirical factor                         0.00000

  C-Matrix calculated in cspmtx

  In cspmtx, C-Matrix calculated using fitted potential

-------------------------------------------



 -------------------------------------------
  COSMO surface
  Area             =         1827.916
  Volume           =         5528.145
  Number of Points =         3838
 -------------------------------------------



 ======================
 RI Hartree-Fock Scheme
 ======================
  
 Fit Set Quality     : GOOD
 Integration Quality : GOOD
 Threshold Quality   : GOOD
 Response Quality    : DEFAULT
 Is Range Separated  :  F
 
 RIHartreeFock Dependency: number of modified vectors:           7
 cosmo_calcen: 0.5 (esolb+esolc) (Hartrees) =   -0.179021

 Solvation energy (screening term,uncorrected) =   -112.337442 kcal/mol

 Solvation energy (dispersion and cavitation terms) =      3.418061 kcal/mol
 Solvation Energy Contributions (Hartrees)
          esola   esolb+esolc
     0.17902109   -0.35804218
 esol last cycle   -0.17902109
  
 Hartree-Fock exchange energy:   -3317.70316582392     
 cosmo_calcen: 0.5 (esolb+esolc) (Hartrees) =   -0.179021

 Solvation energy (screening term,uncorrected) =   -112.337387 kcal/mol

 Solvation energy (dispersion and cavitation terms) =      3.418061 kcal/mol
 Solvation Energy Contributions (Hartrees)
          esola   esolb+esolc
     0.17902100   -0.35804201
 esol last cycle   -0.17902100
  pauli hf:                            -17.187340975362531       -467.6913        -10785.22        -45125.36
  elstat hf:                            -5.801622858263727       -157.8702         -3640.57        -15232.16

 Energy gradients wrt nuclear displacements
 ==========================================

     Atom      Cartesian (a.u./angstrom)
                 X         Y         Z
 ----------------------------------------
     1 W    -0.013263 -0.018679  0.002212
     2 W     0.004408  0.000635 -0.013013
     3 W     0.008759  0.008549 -0.009478
     4 W    -0.018127 -0.010495  0.010209
     5 W     0.012046 -0.002722 -0.006852
     6 O    -0.004175 -0.003906  0.005225
     7 O     0.004025  0.010367 -0.012278
     8 O    -0.016255  0.002325 -0.000147
     9 O     0.008035 -0.001108 -0.010802
    10 O     0.001368 -0.000237 -0.018335
    11 O    -0.008400 -0.003962 -0.001317
    12 O    -0.012405  0.009079 -0.008521
    13 O    -0.014517  0.003690  0.000241
    14 O     0.013054  0.010455 -0.004498
    15 O     0.005681  0.002321 -0.014106
    16 O    -0.003391 -0.013879  0.001212
    17 O    -0.006567 -0.000179 -0.008743
    18 O     0.004409  0.015423 -0.002929
    19 O    -0.000658 -0.004380  0.000520
    20 O     0.000121 -0.009533  0.001699
    21 W    -0.018845 -0.009014  0.014754
    22 W    -0.005694 -0.021048  0.009921
    23 O     0.021419 -0.001947 -0.003903
    24 O     0.001472  0.012346  0.007332
    25 P    -0.006669 -0.007072 -0.007746
    26 O    -0.001127 -0.001389  0.001322
    27 O     0.008322 -0.006485  0.004487
    28 O    -0.002930  0.014448  0.006076
    29 O     0.003856 -0.011525 -0.004891
    30 O     0.003776  0.009493 -0.012846
    31 O     0.016102 -0.003221  0.010033
    32 O     0.002265  0.000427  0.017550
    33 O    -0.000691 -0.004935  0.007683
    34 O    -0.000060 -0.003114 -0.000044
    35 O    -0.005842  0.000727  0.006856
    36 O     0.008580  0.011871 -0.005446
    37 O     0.000538  0.003084  0.015214
    38 O     0.005681  0.006589 -0.007771
    39 O    -0.006078  0.012503 -0.000047
    40 O     0.014102  0.007927 -0.004291
    41 O     0.009718  0.006555  0.011738
    42 W    -0.014611 -0.009639  0.019884
    43 W    -0.018986 -0.009097  0.016892
    44 O     0.008156  0.002726 -0.007534
    45 Na   -0.000563 -0.006563  0.007677
    46 Na    0.000962  0.007610  0.001174
    47 Na   -0.005970 -0.005538  0.005349
    48 Na    0.006400 -0.005683 -0.008696
    49 Na    0.010071  0.007337  0.003723
    50 Na   -0.002909  0.008706 -0.009411
    51 Na    0.008032 -0.001265  0.001754
    52 Na   -0.002805  0.001332 -0.006857
    53 H     0.000181  0.000091 -0.000235
 ----------------------------------------
 Mulliken charges used for AMS results%charges...

 dE(predicted):    -0.27075E-01, dE(actual):    -0.26426E-01, Trust radius:    0.800000, all in a.u.
 
----------------------------------------------------------------------
Geometry Convergence after Step   3       (Hartree/Angstrom,Angstrom)
----------------------------------------------------------------------
current energy                              -18.82444135 Hartree
energy change                      -0.02642585     0.00053000    F
constrained gradient max            0.02142082     0.00100000    F
constrained gradient rms            0.00877843     0.00066667    F
gradient max                        0.02142082
gradient rms                        0.00877843
cart. step max                      0.05209586     0.01000000    F
cart. step rms                      0.01181186     0.00666667    F
 
 
--------
Geometry
--------
Formula: HNa8O34PW9
Atoms
  Index Symbol   x (angstrom)   y (angstrom)   z (angstrom)
      1      W    -4.24005057    -4.90786056     9.74677170       adf.R=1.992
      2      W    -0.13468066    -1.90521712    10.88220229       adf.R=1.992
      3      W    -2.11570486     1.00665699    10.80051131       adf.R=1.992
      4      W    -6.36782988    -1.78369884     9.60891483       adf.R=1.992
      5      W    -2.69133483    -1.59064201     8.50732330       adf.R=1.992
      6      O    -2.63300469    -1.46197515    11.05775063       adf.R=1.517
      7      O    -2.33073392     0.26752535     8.99902270       adf.R=1.517
      8      O    -4.49372328    -1.23239430     8.78316345       adf.R=1.517
      9      O    -0.84942922    -1.91540979     9.07292165       adf.R=1.517
     10      O    -2.57928754    -1.58730852     6.79477784       adf.R=1.517
     11      O    -5.53269264    -3.52353750     9.52925625       adf.R=1.517
     12      O    -6.34885517     0.09294394    10.19089290       adf.R=1.517
     13      O    -3.97034078     1.18425267    10.87410366       adf.R=1.517
     14      O    -0.41825534     0.03265530    10.82048645       adf.R=1.517
     15      O    -7.61727999    -2.29057050    10.70505167       adf.R=1.517
     16      O    -0.64069033    -3.68361928    11.02923696       adf.R=1.517
     17      O    -7.19581178    -1.67934468     8.11741655       adf.R=1.517
     18      O    -1.62044952     2.60528964    10.45635516       adf.R=1.517
     19      O    -4.35455813    -5.67834685     8.20846642       adf.R=1.517
     20      O    -2.99672517    -3.39878624     8.79241196       adf.R=1.517
     21      W    -5.79055868     0.76717113    11.93048437       adf.R=1.992
     22      W    -1.71659732    -5.20650732    12.11947602       adf.R=1.992
     23      O     1.54320094    -2.05101018    10.58929921       adf.R=1.517
     24      O    -2.74568156     2.03142974    15.23080370       adf.R=1.517
     25      P    -3.68299834    -2.18998504    11.87720732       adf.R=1.850
     26      O    -3.23386981    -1.86396184    13.41262716       adf.R=1.517
     27      O    -5.08629431    -1.63217263    11.74655584       adf.R=1.517
     28      O    -3.63209212    -3.69471666    11.73825786       adf.R=1.517
     29      O    -2.49333958    -5.53428348    10.36336203       adf.R=1.517
     30      O    -5.19004964    -5.92588074    10.77699425       adf.R=1.517
     31      O     0.49090200    -2.66135934    15.39723721       adf.R=1.517
     32      O    -0.17186436    -1.77157215    12.75862728       adf.R=1.517
     33      O    -1.19530929    -4.03497550    13.55147050       adf.R=1.517
     34      O    -0.32007062    -6.20679872    12.07323007       adf.R=1.517
     35      O    -4.54717381     0.84867057    13.40268209       adf.R=1.517
     36      O    -7.06456793     0.02618818    12.84444280       adf.R=1.517
     37      O    -2.05882246     0.99962433    12.67274530       adf.R=1.517
     38      O    -3.90805825    -0.38966605    15.69492047       adf.R=1.517
     39      O    -6.25246789     2.42011685    11.86790395       adf.R=1.517
     40      O    -2.85615077    -6.14682224    13.02441697       adf.R=1.517
     41      O    -1.33869475    -0.48506972    14.79033776       adf.R=1.517
     42      W    -3.01039056     0.49067229    14.51948546       adf.R=1.992
     43      W    -1.00498420    -2.40880686    14.59659587       adf.R=1.992
     44      O    -2.20305988    -2.88217229    15.74181978       adf.R=1.517
     45     Na    -7.20615210    -2.27198424    12.95526123       adf.R=2.250
     46     Na    -3.76871178     3.17802110    12.75301753       adf.R=2.250
     47     Na    -4.98496341    -6.95501653    12.81206969       adf.R=2.250
     48     Na    -0.91928031    -4.48780373     8.82581073       adf.R=2.250
     49     Na     0.23858082     0.56040798    13.22759594       adf.R=2.250
     50     Na    -4.74720799     1.14957335     8.61066114       adf.R=2.250
     51     Na     1.27357896    -4.22077842    12.73820701       adf.R=2.250
     52     Na    -4.29726118    -3.71912997     6.68168812       adf.R=2.250
     53      H    -3.78805567    -2.30050091    14.08224047       adf.R=1.350
 
Total System Charge             0.00000
Bonding info available!
 
 *** GOStep4 ***

 SOLVATION
-------------------------------------------

  The Delley construction of COSMO surface surface is calculated

       Division Level for Surface Triangles (NDIV)                  3
       Final Division Level for Triangles (NFDIV)                   1
       Radius of the Solvent (RSOL)                           1.93000 angstr
  Dielectric Constant (EPSL)                                 78.39000

       COSMO equation is solved iteratively-               conjugate-gradient

       Maximun of Iterations for Charges (NCIX)                  1000
       Criterion for Charge convergence (CCNV)                1.0E-08

  COSMO charges included variationally in SCF

       COSMO included at every SCF cycle

  Geometry-dependent empirical factor                         0.00000

  C-Matrix calculated in cspmtx

  In cspmtx, C-Matrix calculated using fitted potential

-------------------------------------------



 -------------------------------------------
  COSMO surface
  Area             =         1824.076
  Volume           =         5530.596
  Number of Points =         3839
 -------------------------------------------



 ======================
 RI Hartree-Fock Scheme
 ======================
  
 Fit Set Quality     : GOOD
 Integration Quality : GOOD
 Threshold Quality   : GOOD
 Response Quality    : DEFAULT
 Is Range Separated  :  F
 
 RIHartreeFock Dependency: number of modified vectors:           7
 cosmo_calcen: 0.5 (esolb+esolc) (Hartrees) =   -0.178896

 Solvation energy (screening term,uncorrected) =   -112.258652 kcal/mol

 Solvation energy (dispersion and cavitation terms) =      3.410881 kcal/mol
 Solvation Energy Contributions (Hartrees)
          esola   esolb+esolc
     0.17889553   -0.35779106
 esol last cycle   -0.17889553
  
 Hartree-Fock exchange energy:   -3317.94528111512     
 cosmo_calcen: 0.5 (esolb+esolc) (Hartrees) =   -0.178895

 Solvation energy (screening term,uncorrected) =   -112.258585 kcal/mol

 Solvation energy (dispersion and cavitation terms) =      3.410881 kcal/mol
 Solvation Energy Contributions (Hartrees)
          esola   esolb+esolc
     0.17889542   -0.35779085
 esol last cycle   -0.17889542
  pauli hf:                            -20.577624719668620       -559.9457        -12912.66        -54026.55
  elstat hf:                            -5.909356525293106       -160.8018         -3708.18        -15515.01

 Energy gradients wrt nuclear displacements
 ==========================================

     Atom      Cartesian (a.u./angstrom)
                 X         Y         Z
 ----------------------------------------
     1 W    -0.012249 -0.018488 -0.007001
     2 W     0.016591 -0.008501 -0.008949
     3 W     0.005365  0.018119 -0.005038
     4 W    -0.020648 -0.010080 -0.002614
     5 W     0.003968 -0.009372 -0.016397
     6 O    -0.008056 -0.006715  0.007857
     7 O     0.002474  0.003886 -0.004587
     8 O    -0.000635 -0.000319 -0.001638
     9 O     0.002218  0.000009 -0.002353
    10 O     0.000597 -0.001020  0.007667
    11 O    -0.005413 -0.001866  0.000017
    12 O    -0.008421  0.004163 -0.002253
    13 O     0.001234  0.001574 -0.000141
    14 O     0.005027  0.004469 -0.003728
    15 O     0.008498  0.003598 -0.014501
    16 O     0.001441  0.004699  0.001572
    17 O     0.001534 -0.001217  0.007035
    18 O    -0.002210 -0.006572  0.001532
    19 O     0.000200  0.001194  0.010783
    20 O     0.004008  0.005945 -0.001315
    21 W    -0.018557  0.006474  0.012778
    22 W     0.002874 -0.022776  0.008436
    23 O    -0.008214  0.000337  0.000069
    24 O    -0.002132 -0.005336 -0.000094
    25 P    -0.005580 -0.003439 -0.005210
    26 O    -0.004101 -0.002904 -0.003459
    27 O     0.012141 -0.006890  0.005032
    28 O    -0.001961  0.015901  0.004959
    29 O     0.001196 -0.004600 -0.000855
    30 O     0.005078  0.010516 -0.012877
    31 O    -0.004401 -0.000163  0.000133
    32 O     0.001491 -0.001172  0.001473
    33 O    -0.001303 -0.002132  0.004979
    34 O    -0.009507  0.003553  0.000129
    35 O    -0.004752 -0.001110  0.004395
    36 O     0.011025  0.011665 -0.007251
    37 O    -0.000173  0.002408 -0.000147
    38 O     0.007005  0.007040 -0.008925
    39 O    -0.000973 -0.006965  0.001117
    40 O     0.014267  0.008795 -0.005430
    41 O     0.003901  0.002620  0.008245
    42 W    -0.010816  0.004249  0.020581
    43 W    -0.002303 -0.010631  0.020718
    44 O     0.009687  0.003890 -0.009076
    45 Na    0.000224 -0.006176  0.007106
    46 Na    0.000813  0.007122  0.001223
    47 Na   -0.005635 -0.005272  0.005039
    48 Na    0.003350 -0.004824 -0.006606
    49 Na    0.009612  0.007086  0.003896
    50 Na   -0.003091  0.008366 -0.009012
    51 Na    0.007613 -0.001113  0.001884
    52 Na   -0.002916  0.001290 -0.006528
    53 H     0.000613  0.000687 -0.002668
 ----------------------------------------
 Mulliken charges used for AMS results%charges...

 dE(predicted):    -0.46677E-02, dE(actual):    -0.60965E-02, Trust radius:    0.800000, all in a.u.
 
----------------------------------------------------------------------
Geometry Convergence after Step   4       (Hartree/Angstrom,Angstrom)
----------------------------------------------------------------------
current energy                              -18.83053789 Hartree
energy change                      -0.00609654     0.00053000    F
constrained gradient max            0.02278592     0.00100000    F
constrained gradient rms            0.00739987     0.00066667    F
gradient max                        0.02278592
gradient rms                        0.00739987
cart. step max                      0.02851354     0.01000000    F
cart. step rms                      0.00826487     0.00666667    F
 
 
--------
Geometry
--------
Formula: HNa8O34PW9
Atoms
  Index Symbol   x (angstrom)   y (angstrom)   z (angstrom)
      1      W    -4.23661636    -4.90016870     9.74910961       adf.R=1.992
      2      W    -0.14605455    -1.90383298    10.88787673       adf.R=1.992
      3      W    -2.11843346     0.99468131    10.80238371       adf.R=1.992
      4      W    -6.35752263    -1.78106312     9.61461735       adf.R=1.992
      5      W    -2.69464163    -1.59229680     8.51842443       adf.R=1.992
      6      O    -2.63768608    -1.46475684    11.06232481       adf.R=1.517
      7      O    -2.33320369     0.25576084     9.01073194       adf.R=1.517
      8      O    -4.48819771    -1.23164979     8.79112314       adf.R=1.517
      9      O    -0.86121721    -1.91882810     9.08632955       adf.R=1.517
     10      O    -2.57622631    -1.58642817     6.80607284       adf.R=1.517
     11      O    -5.51894554    -3.51406506     9.53613320       adf.R=1.517
     12      O    -6.32913564     0.08639001    10.19445591       adf.R=1.517
     13      O    -3.96520531     1.17475579    10.87242675       adf.R=1.517
     14      O    -0.43049988     0.02331237    10.82495644       adf.R=1.517
     15      O    -7.61030943    -2.28848374    10.71558987       adf.R=1.517
     16      O    -0.64875628    -3.67442336    11.03850318       adf.R=1.517
     17      O    -7.18765604    -1.67504738     8.12429781       adf.R=1.517
     18      O    -1.61936573     2.59201719    10.45371657       adf.R=1.517
     19      O    -4.34954517    -5.66752301     8.20671231       adf.R=1.517
     20      O    -2.99933822    -3.39687364     8.79668846       adf.R=1.517
     21      W    -5.78064892     0.76194173    11.92612113       adf.R=1.992
     22      W    -1.71814308    -5.19704680    12.11821796       adf.R=1.992
     23      O     1.53090040    -2.04848508    10.58814789       adf.R=1.517
     24      O    -2.74486773     2.02267176    15.21893563       adf.R=1.517
     25      P    -3.68605685    -2.19334359    11.88402587       adf.R=1.850
     26      O    -3.24011147    -1.86906395    13.41625583       adf.R=1.517
     27      O    -5.09100575    -1.63375770    11.75107807       adf.R=1.517
     28      O    -3.63537178    -3.70060968    11.74058589       adf.R=1.517
     29      O    -2.49096945    -5.51300123    10.36385395       adf.R=1.517
     30      O    -5.18505121    -5.92608227    10.78138146       adf.R=1.517
     31      O     0.48140786    -2.65515559    15.38813527       adf.R=1.517
     32      O    -0.17829103    -1.76768451    12.75435796       adf.R=1.517
     33      O    -1.19910244    -4.02542697    13.54122287       adf.R=1.517
     34      O    -0.31791382    -6.19549195    12.06675456       adf.R=1.517
     35      O    -4.53698855     0.84132232    13.38864306       adf.R=1.517
     36      O    -7.06013124     0.01929620    12.84287927       adf.R=1.517
     37      O    -2.05879402     0.99031913    12.66581632       adf.R=1.517
     38      O    -3.91158634    -0.40015441    15.68400722       adf.R=1.517
     39      O    -6.24232020     2.41448197    11.86264027       adf.R=1.517
     40      O    -2.85979907    -6.14479811    13.02234992       adf.R=1.517
     41      O    -1.34654022    -0.49001484    14.76855709       adf.R=1.517
     42      W    -3.00969590     0.48390468    14.50580417       adf.R=1.992
     43      W    -1.01086254    -2.40523283    14.58505686       adf.R=1.992
     44      O    -2.21425773    -2.88045403    15.73349622       adf.R=1.517
     45     Na    -7.17763856    -2.27111805    12.95180321       adf.R=2.250
     46     Na    -3.76277045     3.17185101    12.74490243       adf.R=2.250
     47     Na    -4.97751766    -6.95381583    12.80658899       adf.R=2.250
     48     Na    -0.94491592    -4.46037996     8.84386702       adf.R=2.250
     49     Na     0.23626066     0.56025706    13.22242472       adf.R=2.250
     50     Na    -4.74075089     1.14667139     8.61192392       adf.R=2.250
     51     Na     1.26996661    -4.21523415    12.73658777       adf.R=2.250
     52     Na    -4.29709870    -3.71273434     6.68434601       adf.R=2.250
     53      H    -3.79068126    -2.30359466    14.09132933       adf.R=1.350
 
Total System Charge             0.00000
Bonding info available!
 
 *** GOStep5 ***

 SOLVATION
-------------------------------------------

  The Delley construction of COSMO surface surface is calculated

       Division Level for Surface Triangles (NDIV)                  3
       Final Division Level for Triangles (NFDIV)                   1
       Radius of the Solvent (RSOL)                           1.93000 angstr
  Dielectric Constant (EPSL)                                 78.39000

       COSMO equation is solved iteratively-               conjugate-gradient

       Maximun of Iterations for Charges (NCIX)                  1000
       Criterion for Charge convergence (CCNV)                1.0E-08

  COSMO charges included variationally in SCF

       COSMO included at every SCF cycle

  Geometry-dependent empirical factor                         0.00000

  C-Matrix calculated in cspmtx

  In cspmtx, C-Matrix calculated using fitted potential

-------------------------------------------



 -------------------------------------------
  COSMO surface
  Area             =         1821.057
  Volume           =         5506.025
  Number of Points =         3830
 -------------------------------------------



 ======================
 RI Hartree-Fock Scheme
 ======================
  
 Fit Set Quality     : GOOD
 Integration Quality : GOOD
 Threshold Quality   : GOOD
 Response Quality    : DEFAULT
 Is Range Separated  :  F
 
 RIHartreeFock Dependency: number of modified vectors:           7
 cosmo_calcen: 0.5 (esolb+esolc) (Hartrees) =   -0.178369

 Solvation energy (screening term,uncorrected) =   -111.928464 kcal/mol

 Solvation energy (dispersion and cavitation terms) =      3.405235 kcal/mol
 Solvation Energy Contributions (Hartrees)
          esola   esolb+esolc
     0.17836934   -0.35673868
 esol last cycle   -0.17836934
  
 Hartree-Fock exchange energy:   -3318.03035158712     
 cosmo_calcen: 0.5 (esolb+esolc) (Hartrees) =   -0.178369

 Solvation energy (screening term,uncorrected) =   -111.928395 kcal/mol

 Solvation energy (dispersion and cavitation terms) =      3.405235 kcal/mol
 Solvation Energy Contributions (Hartrees)
          esola   esolb+esolc
     0.17836923   -0.35673846
 esol last cycle   -0.17836923
  pauli hf:                            -22.124957220292686       -602.0507        -13883.62        -58089.07
  elstat hf:                            -5.958195644579064       -162.1308         -3738.82        -15643.24

 Energy gradients wrt nuclear displacements
 ==========================================

     Atom      Cartesian (a.u./angstrom)
                 X         Y         Z
 ----------------------------------------
     1 W    -0.006681 -0.008819 -0.007667
     2 W     0.007665 -0.010018 -0.003040
     3 W     0.000663  0.009095  0.000010
     4 W    -0.009624 -0.005347 -0.006614
     5 W    -0.001088 -0.010133 -0.007850
     6 O    -0.006620 -0.005420  0.005699
     7 O     0.001454  0.000036  0.000851
     8 O     0.007542 -0.001644 -0.002272
     9 O    -0.000750  0.000986  0.002494
    10 O     0.001072 -0.000983  0.009215
    11 O    -0.002043 -0.000466  0.000207
    12 O    -0.004262  0.000462  0.002040
    13 O     0.009371  0.000357 -0.000294
    14 O    -0.000750  0.000717 -0.002654
    15 O     0.002789  0.001482 -0.007974
    16 O     0.003680  0.013043  0.002447
    17 O     0.001141 -0.001030  0.007215
    18 O    -0.002186 -0.007619  0.001357
    19 O     0.000432  0.000349  0.007796
    20 O     0.005269  0.010187 -0.002293
    21 W    -0.007613  0.008667  0.005106
    22 W     0.005244 -0.012034  0.004560
    23 O    -0.010501  0.000754 -0.000134
    24 O    -0.002630 -0.007361 -0.000602
    25 P    -0.001110  0.000658 -0.001557
    26 O    -0.004255 -0.002713 -0.003947
    27 O     0.006052 -0.004110  0.004318
    28 O    -0.001332  0.007969  0.003053
    29 O    -0.000088  0.000502  0.000941
    30 O     0.001555  0.005748 -0.007393
    31 O    -0.008393  0.000451 -0.001442
    32 O     0.001159 -0.001729 -0.007914
    33 O    -0.001375 -0.000471  0.002002
    34 O    -0.006908  0.001827 -0.000386
    35 O    -0.002764 -0.001924  0.002415
    36 O     0.004245  0.006739 -0.002798
    37 O    -0.000351  0.001786 -0.008689
    38 O     0.002442  0.002140 -0.002707
    39 O    -0.000959 -0.008287  0.001276
    40 O     0.008249  0.004547 -0.001892
    41 O    -0.000367  0.000011  0.004337
    42 W    -0.003873  0.007811  0.009083
    43 W     0.006324 -0.005853  0.010453
    44 O     0.003028  0.001464 -0.002877
    45 Na    0.001169 -0.005496  0.006054
    46 Na    0.000813  0.006424  0.001169
    47 Na   -0.005089 -0.004850  0.004588
    48 Na    0.000427 -0.003185 -0.004614
    49 Na    0.008881  0.006589  0.003788
    50 Na   -0.003012  0.007754 -0.008391
    51 Na    0.007062 -0.000776  0.002009
    52 Na   -0.003001  0.001412 -0.006122
    53 H    -0.000105  0.000300 -0.002362
 ----------------------------------------
 Mulliken charges used for AMS results%charges...

 dE(predicted):    -0.18425E-02, dE(actual):    -0.23260E-02, Trust radius:    0.800000, all in a.u.
 
----------------------------------------------------------------------
Geometry Convergence after Step   5       (Hartree/Angstrom,Angstrom)
----------------------------------------------------------------------
current energy                              -18.83286389 Hartree
energy change                      -0.00232600     0.00053000    F
constrained gradient max            0.01302318     0.00100000    F
constrained gradient rms            0.00505748     0.00066667    F
gradient max                        0.01302318
gradient rms                        0.00505748
cart. step max                      0.02274326     0.01000000    F
cart. step rms                      0.00469736     0.00666667    T
 
 
--------
Geometry
--------
Formula: HNa8O34PW9
Atoms
  Index Symbol   x (angstrom)   y (angstrom)   z (angstrom)
      1      W    -4.23578232    -4.89712681     9.75363525       adf.R=1.992
      2      W    -0.14995829    -1.90250076    10.89095044       adf.R=1.992
      3      W    -2.12016882     0.98754499    10.80421146       adf.R=1.992
      4      W    -6.35339281    -1.77892350     9.61781710       adf.R=1.992
      5      W    -2.69674213    -1.59192299     8.52380037       adf.R=1.992
      6      O    -2.63720359    -1.46596402    11.06280816       adf.R=1.517
      7      O    -2.33428420     0.25060632     9.01623051       adf.R=1.517
      8      O    -4.48820857    -1.23106773     8.79707530       adf.R=1.517
      9      O    -0.86587412    -1.92070680     9.09122688       adf.R=1.517
     10      O    -2.57897091    -1.58438351     6.80813543       adf.R=1.517
     11      O    -5.51106573    -3.50821409     9.54258075       adf.R=1.517
     12      O    -6.31773683     0.08302680    10.19476253       adf.R=1.517
     13      O    -3.96606314     1.16701881    10.87264826       adf.R=1.517
     14      O    -0.43588770     0.01870691    10.82843847       adf.R=1.517
     15      O    -7.61269957    -2.28541813    10.71682526       adf.R=1.517
     16      O    -0.65275256    -3.67382820    11.04169419       adf.R=1.517
     17      O    -7.18047152    -1.67128611     8.12326626       adf.R=1.517
     18      O    -1.62031839     2.58775073    10.45516757       adf.R=1.517
     19      O    -4.34872808    -5.66260859     8.20719046       adf.R=1.517
     20      O    -3.00384817    -3.39810249     8.80253439       adf.R=1.517
     21      W    -5.77697771     0.75736907    11.92341536       adf.R=1.992
     22      W    -1.71937729    -5.19202036    12.11713865       adf.R=1.992
     23      O     1.53094596    -2.04603987    10.59093727       adf.R=1.517
     24      O    -2.74133720     2.01927750    15.21147663       adf.R=1.517
     25      P    -3.68564394    -2.19571750    11.88738904       adf.R=1.850
     26      O    -3.24006041    -1.87223026    13.41962498       adf.R=1.517
     27      O    -5.09253154    -1.63408045    11.75022278       adf.R=1.517
     28      O    -3.63611490    -3.70528037    11.74188562       adf.R=1.517
     29      O    -2.49030815    -5.50506572    10.36404585       adf.R=1.517
     30      O    -5.18230890    -5.92816396    10.78707967       adf.R=1.517
     31      O     0.48300377    -2.65053855    15.38115318       adf.R=1.517
     32      O    -0.18141679    -1.76535202    12.75483258       adf.R=1.517
     33      O    -1.20096308    -4.01947772    13.53432646       adf.R=1.517
     34      O    -0.31550839    -6.18985204    12.06349494       adf.R=1.517
     35      O    -4.53062565     0.83438647    13.37970184       adf.R=1.517
     36      O    -7.06302272     0.01807426    12.84029574       adf.R=1.517
     37      O    -2.05910973     0.98252058    12.66563448       adf.R=1.517
     38      O    -3.91337359    -0.40731970    15.67864886       adf.R=1.517
     39      O    -6.23544460     2.41338925    11.85786405       adf.R=1.517
     40      O    -2.86164232    -6.14292283    13.02235144       adf.R=1.517
     41      O    -1.34989469    -0.49361591    14.75501952       adf.R=1.517
     42      W    -3.00889283     0.47805626    14.49922610       adf.R=1.992
     43      W    -1.01276178    -2.40355211    14.57919156       adf.R=1.992
     44      O    -2.21749586    -2.88093700    15.72998058       adf.R=1.517
     45     Na    -7.18873015    -2.26299524    12.94478779       adf.R=2.250
     46     Na    -3.75996241     3.16526023    12.74065352       adf.R=2.250
     47     Na    -4.96921892    -6.95034214    12.80404987       adf.R=2.250
     48     Na    -0.95385912    -4.43763670     8.85091136       adf.R=2.250
     49     Na     0.23425327     0.55950181    13.21939751       adf.R=2.250
     50     Na    -4.73649609     1.14440908     8.61432759       adf.R=2.250
     51     Na     1.26722241    -4.21310803    12.73480975       adf.R=2.250
     52     Na    -4.29611774    -3.71156224     6.68901271       adf.R=2.250
     53      H    -3.78597563    -2.30552106    14.10068646       adf.R=1.350
 
Total System Charge             0.00000
Bonding info available!
 
 *** GOStep6 ***

 SOLVATION
-------------------------------------------

  The Delley construction of COSMO surface surface is calculated

       Division Level for Surface Triangles (NDIV)                  3
       Final Division Level for Triangles (NFDIV)                   1
       Radius of the Solvent (RSOL)                           1.93000 angstr
  Dielectric Constant (EPSL)                                 78.39000

       COSMO equation is solved iteratively-               conjugate-gradient

       Maximun of Iterations for Charges (NCIX)                  1000
       Criterion for Charge convergence (CCNV)                1.0E-08

  COSMO charges included variationally in SCF

       COSMO included at every SCF cycle

  Geometry-dependent empirical factor                         0.00000

  C-Matrix calculated in cspmtx

  In cspmtx, C-Matrix calculated using fitted potential

-------------------------------------------



 -------------------------------------------
  COSMO surface
  Area             =         1821.327
  Volume           =         5507.251
  Number of Points =         3832
 -------------------------------------------



 ======================
 RI Hartree-Fock Scheme
 ======================
  
 Fit Set Quality     : GOOD
 Integration Quality : GOOD
 Threshold Quality   : GOOD
 Response Quality    : DEFAULT
 Is Range Separated  :  F
 
 RIHartreeFock Dependency: number of modified vectors:           7
 cosmo_calcen: 0.5 (esolb+esolc) (Hartrees) =   -0.177417

 Solvation energy (screening term,uncorrected) =   -111.330737 kcal/mol

 Solvation energy (dispersion and cavitation terms) =      3.405741 kcal/mol
 Solvation Energy Contributions (Hartrees)
          esola   esolb+esolc
     0.17741680   -0.35483361
 esol last cycle   -0.17741680
  
 Hartree-Fock exchange energy:   -3318.04320450773     
 cosmo_calcen: 0.5 (esolb+esolc) (Hartrees) =   -0.177417

 Solvation energy (screening term,uncorrected) =   -111.330749 kcal/mol

 Solvation energy (dispersion and cavitation terms) =      3.405741 kcal/mol
 Solvation Energy Contributions (Hartrees)
          esola   esolb+esolc
     0.17741682   -0.35483364
 esol last cycle   -0.17741682
  pauli hf:                            -24.042899483633278       -654.2406        -15087.15        -63124.62
  elstat hf:                            -5.973436036219255       -162.5455         -3748.39        -15683.25

 Energy gradients wrt nuclear displacements
 ==========================================

     Atom      Cartesian (a.u./angstrom)
                 X         Y         Z
 ----------------------------------------
     1 W    -0.003900 -0.002608 -0.004356
     2 W    -0.001784 -0.006393 -0.000672
     3 W    -0.000104 -0.000419  0.001096
     4 W    -0.002222 -0.001620 -0.004151
     5 W    -0.000774 -0.006717  0.000489
     6 O    -0.004092 -0.003133  0.002523
     7 O     0.001009 -0.001478  0.003174
     8 O     0.006878 -0.002099 -0.001610
     9 O    -0.001873  0.001371  0.003594
    10 O     0.001555 -0.000454  0.003136
    11 O     0.000795  0.000231 -0.000191
    12 O    -0.001088 -0.001724  0.003665
    13 O     0.008295 -0.000160  0.000354
    14 O    -0.003438 -0.000732 -0.001731
    15 O    -0.000598  0.000276 -0.004530
    16 O     0.002750  0.010787  0.003307
    17 O    -0.000884 -0.000539  0.003500
    18 O    -0.000423 -0.002638  0.000048
    19 O     0.000646 -0.001121  0.003702
    20 O     0.003820  0.006544 -0.001150
    21 W    -0.001194  0.004151  0.000465
    22 W     0.003716 -0.003952  0.003142
    23 O    -0.003364  0.000485 -0.001394
    24 O    -0.001659 -0.003837  0.000788
    25 P     0.002783  0.001706  0.000628
    26 O    -0.003273 -0.002236 -0.002284
    27 O     0.000407 -0.001699  0.002715
    28 O    -0.001316  0.001718  0.001672
    29 O    -0.000764  0.002640  0.001431
    30 O     0.000012  0.002905 -0.004361
    31 O    -0.004895  0.000193  0.000169
    32 O     0.000661 -0.001506 -0.007748
    33 O    -0.001347  0.000033 -0.000238
    34 O    -0.003220 -0.000423 -0.000956
    35 O    -0.000745 -0.002004  0.000882
    36 O     0.000088  0.004267 -0.000309
    37 O    -0.000614  0.001111 -0.008497
    38 O     0.000144 -0.000247  0.000088
    39 O    -0.002223 -0.004025  0.000928
    40 O     0.004864  0.002248 -0.000180
    41 O    -0.002547 -0.001334  0.001117
    42 W    -0.000560  0.004263  0.001934
    43 W     0.004819 -0.001774  0.002661
    44 O    -0.000245  0.000185  0.000008
    45 Na    0.001162 -0.004781  0.005026
    46 Na    0.000884  0.005952  0.001082
    47 Na   -0.004375 -0.004274  0.003998
    48 Na   -0.000785 -0.001604 -0.003676
    49 Na    0.008256  0.006151  0.003524
    50 Na   -0.002762  0.007258 -0.007851
    51 Na    0.006705 -0.000507  0.002016
    52 Na   -0.002931  0.001500 -0.005857
    53 H    -0.000252  0.000067 -0.001120
 ----------------------------------------
 Mulliken charges used for AMS results%charges...

 dE(predicted):    -0.72831E-03, dE(actual):    -0.10471E-02, Trust radius:    0.800000, all in a.u.
 
----------------------------------------------------------------------
Geometry Convergence after Step   6       (Hartree/Angstrom,Angstrom)
----------------------------------------------------------------------
current energy                              -18.83391100 Hartree
energy change                      -0.00104711     0.00053000    F
constrained gradient max            0.01076500     0.00100000    F
constrained gradient rms            0.00319717     0.00066667    F
gradient max                        0.01076500
gradient rms                        0.00319717
cart. step max                      0.02743859     0.01000000    F
cart. step rms                      0.00482858     0.00666667    T
 
 
--------
Geometry
--------
Formula: HNa8O34PW9
Atoms
  Index Symbol   x (angstrom)   y (angstrom)   z (angstrom)
      1      W    -4.23505638    -4.89550942     9.75958670       adf.R=1.992
      2      W    -0.15076687    -1.90142991    10.89245130       adf.R=1.992
      3      W    -2.12224654     0.98248709    10.80639061       adf.R=1.992
      4      W    -6.35145095    -1.77756654     9.62049294       adf.R=1.992
      5      W    -2.69839535    -1.58956463     8.52652854       adf.R=1.992
      6      O    -2.63388986    -1.46590311    11.06041904       adf.R=1.517
      7      O    -2.33505923     0.24963447     9.01823572       adf.R=1.517
      8      O    -4.49057118    -1.23049524     8.80291190       adf.R=1.517
      9      O    -0.86683607    -1.92193849     9.09112088       adf.R=1.517
     10      O    -2.58594124    -1.58119177     6.80810583       adf.R=1.517
     11      O    -5.50561488    -3.50418770     9.54961725       adf.R=1.517
     12      O    -6.31061518     0.08102382    10.19352561       adf.R=1.517
     13      O    -3.97022276     1.15903042    10.87418667       adf.R=1.517
     14      O    -0.43803472     0.01618905    10.83139817       adf.R=1.517
     15      O    -7.61751776    -2.28280792    10.71483544       adf.R=1.517
     16      O    -0.65508334    -3.67757195    11.04042785       adf.R=1.517
     17      O    -7.17056786    -1.66902613     8.11917043       adf.R=1.517
     18      O    -1.62500809     2.58649554    10.46117058       adf.R=1.517
     19      O    -4.35036058    -5.65945692     8.21005662       adf.R=1.517
     20      O    -3.00901496    -3.39907446     8.81003199       adf.R=1.517
     21      W    -5.77616860     0.75234690    11.92196378       adf.R=1.992
     22      W    -1.72109435    -5.18843671    12.11513503       adf.R=1.992
     23      O     1.53372909    -2.04427906    10.59684053       adf.R=1.517
     24      O    -2.73625443     2.01740641    15.20439265       adf.R=1.517
     25      P    -3.68331897    -2.19655717    11.88753818       adf.R=1.850
     26      O    -3.23573011    -1.87284896    13.42055307       adf.R=1.517
     27      O    -5.09084607    -1.63290192    11.74555895       adf.R=1.517
     28      O    -3.63399859    -3.70753293    11.74109154       adf.R=1.517
     29      O    -2.48965910    -5.50462146    10.36302166       adf.R=1.517
     30      O    -5.17937506    -5.93003045    10.79399707       adf.R=1.517
     31      O     0.48840164    -2.64674737    15.37285339       adf.R=1.517
     32      O    -0.18459835    -1.76429094    12.75711396       adf.R=1.517
     33      O    -1.20301610    -4.01462172    13.52844413       adf.R=1.517
     34      O    -0.31466457    -6.18638715    12.06351615       adf.R=1.517
     35      O    -4.52635528     0.82719728    13.37354425       adf.R=1.517
     36      O    -7.06767666     0.01780255    12.83781380       adf.R=1.517
     37      O    -2.06047528     0.97407482    12.66901787       adf.R=1.517
     38      O    -3.91429244    -0.41224304    15.67676474       adf.R=1.517
     39      O    -6.22837101     2.41265792    11.85367909       adf.R=1.517
     40      O    -2.86374765    -6.13923601    13.02274222       adf.R=1.517
     41      O    -1.35094408    -0.49651815    14.74590341       adf.R=1.517
     42      W    -3.00825963     0.47230101    14.49626084       adf.R=1.992
     43      W    -1.01358261    -2.40282261    14.57573484       adf.R=1.992
     44      O    -2.21683563    -2.88240353    15.72903872       adf.R=1.517
     45     Na    -7.21616874    -2.25039700    12.93426568       adf.R=2.250
     46     Na    -3.75883563     3.15674387    12.73803378       adf.R=2.250
     47     Na    -4.95957935    -6.94086071    12.80220075       adf.R=2.250
     48     Na    -0.95595636    -4.42062504     8.85480948       adf.R=2.250
     49     Na     0.23046199     0.55707396    13.21667265       adf.R=2.250
     50     Na    -4.73341246     1.14128212     8.61916134       adf.R=2.250
     51     Na     1.26252018    -4.21310757    12.73251862       adf.R=2.250
     52     Na    -4.29288325    -3.71360636     6.69644049       adf.R=2.250
     53      H    -3.77666292    -2.30543362    14.10728608       adf.R=1.350
 
Total System Charge             0.00000
Bonding info available!
 
 *** GOStep7 ***

 SOLVATION
-------------------------------------------

  The Delley construction of COSMO surface surface is calculated

       Division Level for Surface Triangles (NDIV)                  3
       Final Division Level for Triangles (NFDIV)                   1
       Radius of the Solvent (RSOL)                           1.93000 angstr
  Dielectric Constant (EPSL)                                 78.39000

       COSMO equation is solved iteratively-               conjugate-gradient

       Maximun of Iterations for Charges (NCIX)                  1000
       Criterion for Charge convergence (CCNV)                1.0E-08

  COSMO charges included variationally in SCF

       COSMO included at every SCF cycle

  Geometry-dependent empirical factor                         0.00000

  C-Matrix calculated in cspmtx

  In cspmtx, C-Matrix calculated using fitted potential

-------------------------------------------



 -------------------------------------------
  COSMO surface
  Area             =         1814.639
  Volume           =         5470.317
  Number of Points =         3825
 -------------------------------------------



 ======================
 RI Hartree-Fock Scheme
 ======================
  
 Fit Set Quality     : GOOD
 Integration Quality : GOOD
 Threshold Quality   : GOOD
 Response Quality    : DEFAULT
 Is Range Separated  :  F
 
 RIHartreeFock Dependency: number of modified vectors:           7
 cosmo_calcen: 0.5 (esolb+esolc) (Hartrees) =   -0.175945

 Solvation energy (screening term,uncorrected) =   -110.407418 kcal/mol

 Solvation energy (dispersion and cavitation terms) =      3.393234 kcal/mol
 Solvation Energy Contributions (Hartrees)
          esola   esolb+esolc
     0.17594540   -0.35189080
 esol last cycle   -0.17594540
  
 Hartree-Fock exchange energy:   -3318.04172566882     
 cosmo_calcen: 0.5 (esolb+esolc) (Hartrees) =   -0.175945

 Solvation energy (screening term,uncorrected) =   -110.407439 kcal/mol

 Solvation energy (dispersion and cavitation terms) =      3.393234 kcal/mol
 Solvation Energy Contributions (Hartrees)
          esola   esolb+esolc
     0.17594543   -0.35189087
 esol last cycle   -0.17594543
  pauli hf:                            -24.785775729811007       -674.4553        -15553.31        -65075.04
  elstat hf:                            -5.981090865288479       -162.7538         -3753.19        -15703.35

 Energy gradients wrt nuclear displacements
 ==========================================

     Atom      Cartesian (a.u./angstrom)
                 X         Y         Z
 ----------------------------------------
     1 W    -0.002175  0.001260  0.000067
     2 W    -0.006080 -0.001406 -0.000537
     3 W     0.001401 -0.006098 -0.000464
     4 W     0.001453  0.001089  0.000289
     5 W     0.001552 -0.001686  0.004527
     6 O    -0.001580 -0.000946 -0.000418
     7 O     0.000692 -0.002181  0.003833
     8 O     0.002479 -0.002327 -0.000421
     9 O    -0.002194  0.001158  0.002795
    10 O     0.001628  0.000221 -0.002031
    11 O     0.003206  0.000725 -0.000822
    12 O     0.001725 -0.003269  0.003806
    13 O     0.002990 -0.000395  0.001447
    14 O    -0.004408 -0.001539 -0.000813
    15 O    -0.001872 -0.000262 -0.002815
    16 O     0.000533  0.004286  0.003724
    17 O    -0.002018  0.000014 -0.000139
    18 O     0.000886  0.001577 -0.000878
    19 O     0.000727 -0.002238  0.000518
    20 O     0.001198  0.000831  0.000860
    21 W     0.001344 -0.001615 -0.001800
    22 W     0.000953  0.001763  0.002188
    23 O     0.002711  0.000238 -0.002103
    24 O    -0.000315  0.000010  0.001833
    25 P     0.004228  0.001101  0.001941
    26 O    -0.001545 -0.001513 -0.000381
    27 O    -0.002838  0.000063  0.000632
    28 O    -0.001277 -0.002201  0.000552
    29 O    -0.001086  0.003253  0.001274
    30 O    -0.000358  0.001094 -0.002600
    31 O    -0.000432  0.000015  0.001728
    32 O    -0.000085 -0.001004 -0.002965
    33 O    -0.001224  0.000282 -0.001872
    34 O    -0.000383 -0.002020 -0.001303
    35 O     0.001181 -0.001733 -0.000613
    36 O    -0.001628  0.003159  0.000593
    37 O    -0.001062  0.000326 -0.003901
    38 O    -0.000696 -0.000960  0.000855
    39 O    -0.002933  0.000286  0.000299
    40 O     0.002862  0.001007  0.000562
    41 O    -0.003580 -0.002167 -0.001838
    42 W     0.000805 -0.000863 -0.001637
    43 W     0.000231  0.001248 -0.002152
    44 O    -0.001258 -0.000355  0.000918
    45 Na    0.000794 -0.003779  0.003697
    46 Na    0.000975  0.005533  0.000966
    47 Na   -0.003321 -0.003339  0.003078
    48 Na   -0.001107 -0.000360 -0.002984
    49 Na    0.007599  0.005704  0.003173
    50 Na   -0.002397  0.006743 -0.007226
    51 Na    0.006407 -0.000283  0.001909
    52 Na   -0.002722  0.001524 -0.005556
    53 H     0.000014  0.000031  0.000202
 ----------------------------------------
 Mulliken charges used for AMS results%charges...

 dE(predicted):    -0.53988E-03, dE(actual):    -0.77516E-03, Trust radius:    0.800000, all in a.u.
 
----------------------------------------------------------------------
Geometry Convergence after Step   7       (Hartree/Angstrom,Angstrom)
----------------------------------------------------------------------
current energy                              -18.83468616 Hartree
energy change                      -0.00077516     0.00053000    F
constrained gradient max            0.00761708     0.00100000    F
constrained gradient rms            0.00238547     0.00066667    F
gradient max                        0.00761708
gradient rms                        0.00238547
cart. step max                      0.02919143     0.01000000    F
cart. step rms                      0.00487764     0.00666667    T
 
 
--------
Geometry
--------
Formula: HNa8O34PW9
Atoms
  Index Symbol   x (angstrom)   y (angstrom)   z (angstrom)
      1      W    -4.23342872    -4.89477792     9.76490454       adf.R=1.992
      2      W    -0.14998936    -1.90074099    10.89221619       adf.R=1.992
      3      W    -2.12453896     0.97968303    10.80855037       adf.R=1.992
      4      W    -6.35056769    -1.77768507     9.62301683       adf.R=1.992
      5      W    -2.69920194    -1.58614917     8.52728622       adf.R=1.992
      6      O    -2.62934161    -1.46449037    11.05626438       adf.R=1.517
      7      O    -2.33549320     0.25229924     9.01697862       adf.R=1.517
      8      O    -4.49291090    -1.23031897     8.80834862       adf.R=1.517
      9      O    -0.86442776    -1.92225907     9.08693856       adf.R=1.517
     10      O    -2.59504036    -1.57790455     6.80797770       adf.R=1.517
     11      O    -5.50324074    -3.50296566     9.55587260       adf.R=1.517
     12      O    -6.30892899     0.08055873    10.19174549       adf.R=1.517
     13      O    -3.97505967     1.15178807    10.87637916       adf.R=1.517
     14      O    -0.43715041     0.01594375    10.83307704       adf.R=1.517
     15      O    -7.62120717    -2.28188640    10.71316875       adf.R=1.517
     16      O    -0.65598615    -3.68278943    11.03526591       adf.R=1.517
     17      O    -7.15937818    -1.66986320     8.11506337       adf.R=1.517
     18      O    -1.63273140     2.58695769    10.47036353       adf.R=1.517
     19      O    -4.35340567    -5.65743964     8.21411952       adf.R=1.517
     20      O    -3.01226490    -3.39875942     8.81686538       adf.R=1.517
     21      W    -5.77706171     0.74795164    11.92210080       adf.R=1.992
     22      W    -1.72297514    -5.18631242    12.11194416       adf.R=1.992
     23      O     1.53609150    -2.04381017    10.60450699       adf.R=1.517
     24      O    -2.73148228     2.01675945    15.19787989       adf.R=1.517
     25      P    -3.68015646    -2.19522424    11.88444748       adf.R=1.850
     26      O    -3.22949321    -1.87042889    13.41830082       adf.R=1.517
     27      O    -5.08683876    -1.63039005    11.73949836       adf.R=1.517
     28      O    -3.62903469    -3.70645321    11.73752027       adf.R=1.517
     29      O    -2.48825297    -5.51041429    10.36031583       adf.R=1.517
     30      O    -5.17613030    -5.93018120    10.80061269       adf.R=1.517
     31      O     0.49370342    -2.64504225    15.36392555       adf.R=1.517
     32      O    -0.18861981    -1.76475983    12.75885570       adf.R=1.517
     33      O    -1.20552966    -4.01144570    13.52418705       adf.R=1.517
     34      O    -0.31583976    -6.18487017    12.06675190       adf.R=1.517
     35      O    -4.52498717     0.82194612    13.37138951       adf.R=1.517
     36      O    -7.07111778     0.01663839    12.83689926       adf.R=1.517
     37      O    -2.06279027     0.96618805    12.67348630       adf.R=1.517
     38      O    -3.91455640    -0.41388398    15.67841164       adf.R=1.517
     39      O    -6.22142083     2.41148153    11.85129261       adf.R=1.517
     40      O    -2.86655880    -6.13414139    13.02228252       adf.R=1.517
     41      O    -1.35000299    -0.49795792    14.74305794       adf.R=1.517
     42      W    -3.00807916     0.46806219    14.49638993       adf.R=1.992
     43      W    -1.01430315    -2.40298858    14.57423480       adf.R=1.992
     44      O    -2.21440310    -2.88416525    15.73007233       adf.R=1.517
     45     Na    -7.24536017    -2.23683118    12.92309477       adf.R=2.250
     46     Na    -3.75897903     3.14769124    12.73650760       adf.R=2.250
     47     Na    -4.95083410    -6.92535595    12.80055112       adf.R=2.250
     48     Na    -0.95427095    -4.41338862     8.85762549       adf.R=2.250
[...]
                                    1.30%     3 D:yz           -4.382  0.80     9 W
                                    1.17%     2 P:y             0.126  0.00    50 Na
                                    1.17%     4 S               0.705  0.00    46 Na
                                    1.15%     3 D:xz           -4.382  0.80     4 W
                                    1.12%     3 D:xz           -4.382  0.80     8 W
       2.687  0.00   588 A          8.17%     2 P:x             0.126  0.00    47 Na
                                    7.46%     2 P:z             0.126  0.00    51 Na
                                    7.43%     2 P:y             0.126  0.00    50 Na
                                    7.19%     2 P:z             0.126  0.00    46 Na
                                    6.16%     2 P:z             0.126  0.00    50 Na
                                    4.98%     2 P:z             0.126  0.00    49 Na
                                    4.36%     2 P:x             0.126  0.00    52 Na
                                    4.36%     2 P:z             0.126  0.00    45 Na
                                    3.12%     6 S              -6.463  2.00     8 W
                                    2.67%     6 S              -6.463  2.00     7 W
                                    2.53%     7 S               1.678  0.00     6 W
                                    2.32%     2 P:y             0.126  0.00    48 Na
                                    2.32%     2 P:y             0.126  0.00    49 Na
                                    2.06%     2 P:z            -5.658  1.00    44 P
                                    1.97%     2 P:z             0.126  0.00    52 Na
                                    1.95%     2 P:y             0.126  0.00    52 Na
                                    1.75%     7 S               1.678  0.00     7 W
                                    1.67%     2 P:x             0.126  0.00    50 Na
                                    1.42%     4 S               0.705  0.00    51 Na
                                    1.41%     3 D:z2           -4.382  0.80     2 W
                                    1.41%     7 S               1.678  0.00     9 W
                                    1.40%     3 S              -2.751  1.00    45 Na
                                    1.34%     6 S              -6.463  2.00     6 W
                                    1.33%     3 D:z2           -4.382  0.80     3 W
                                    1.21%     6 S              -6.463  2.00     4 W
                                    1.19%     3 D:xz           -4.382  0.80     8 W
                                    1.15%     3 D:xz           -4.382  0.80     4 W
                                    1.14%     4 D:yz            4.723  0.00     3 W
                                   -1.13%     7 S               1.678  0.00     8 W
                                    1.06%     2 P:y             0.126  0.00    45 Na
                                    1.03%     2 P:y             0.126  0.00    47 Na
                                    1.03%     6 S              -6.463  2.00     9 W
       2.710  0.00   589 A         10.29%     1 S              -6.581  1.00    53 H
                                   10.27%     2 P:z             0.126  0.00    47 Na
                                    5.14%     3 D:z2           -4.382  0.80     2 W
                                    4.26%     7 S               1.678  0.00     6 W
                                    3.63%     3 D:xz           -4.382  0.80     4 W
                                    3.12%     2 P:x             0.126  0.00    52 Na
                                    2.95%     2 P:y             0.126  0.00    52 Na
                                    2.68%     4 S               0.705  0.00    45 Na
                                   -2.43%     3 S              -2.751  1.00    46 Na
                                    2.27%     2 P:y             0.126  0.00    47 Na
                                    2.15%     6 S              -6.463  2.00     6 W
                                    2.02%     3 D:xy           -4.382  0.80     1 W
                                    1.97%     2 P:y             0.126  0.00    50 Na
                                    1.97%     3 D:x2-y2        -4.382  0.80     2 W
                                    1.81%     3 D:yz           -4.382  0.80     1 W
                                    1.65%     7 S               1.678  0.00     8 W
                                    1.49%     2 P:x             0.126  0.00    46 Na
                                   -1.45%     3 S              -2.751  1.00    45 Na
                                    1.45%     3 D:z2           -4.382  0.80     4 W
                                    1.31%     7 S               1.678  0.00     3 W
                                    1.29%     1 P:z            -9.955  1.33    21 O
                                    1.27%     3 D:z2           -4.382  0.80     3 W
                                    1.20%     3 D:xz           -4.382  0.80     6 W
                                    1.12%     3 D:xz           -4.382  0.80     8 W
                                    1.10%     5 P:z             0.094  0.00     4 W
                                    1.08%     2 P:y             0.126  0.00    51 Na
                                    1.05%     3 D:z2           -4.382  0.80     5 W
                                    1.01%     2 P:x             0.126  0.00    50 Na
       2.876  0.00   590 A         10.78%     2 P:x             0.126  0.00    50 Na
                                    7.62%     2 P:z             0.126  0.00    45 Na
                                    7.10%     7 S               1.678  0.00     2 W
                                    5.30%     6 S              -6.463  2.00     2 W
                                    4.74%     1 S              -6.581  1.00    53 H
                                    3.92%     2 P:z             0.126  0.00    47 Na
                                    3.90%     3 D:xz           -4.382  0.80     4 W
                                    3.37%     2 P:y             0.126  0.00    48 Na
                                    2.95%     3 D:xz           -4.382  0.80     6 W
                                    2.53%     2 P:z             0.126  0.00    51 Na
                                    2.50%     2 P:y             0.126  0.00    49 Na
                                    2.48%     7 S               1.678  0.00     4 W
                                    2.39%     6 S              -6.463  2.00     3 W
                                    2.16%     2 P:x             0.126  0.00    48 Na
                                    2.14%     3 D:x2-y2        -4.382  0.80     4 W
                                    2.11%     2 P:y             0.126  0.00    51 Na
                                    1.98%     2 P:x             0.126  0.00    46 Na
                                    1.56%     3 D:xy           -4.382  0.80     4 W
                                    1.44%     2 P:y             0.126  0.00    45 Na
                                    1.29%     2 P:y             0.126  0.00    47 Na
                                   -1.25%     3 S              -2.751  1.00    51 Na
                                    1.20%     6 S              -6.463  2.00     4 W
                                    1.17%     2 P:z             0.126  0.00    49 Na
                                    1.11%     7 S               1.678  0.00     6 W
                                    1.06%     4 S               0.705  0.00    50 Na
                                    1.00%     7 S               1.678  0.00     9 W
       2.927  0.00   591 A          9.16%     6 S              -6.463  2.00     1 W
                                    7.53%     7 S               1.678  0.00     1 W
                                    6.56%     2 P:z             0.126  0.00    49 Na
                                    6.28%     2 P:y             0.126  0.00    47 Na
                                    5.51%     2 P:y             0.126  0.00    48 Na
                                    5.36%     6 S              -6.463  2.00     5 W
                                    5.35%     2 P:x             0.126  0.00    49 Na
                                    5.16%     6 S              -6.463  2.00     3 W
                                    4.81%     7 S               1.678  0.00     3 W
                                    4.29%     2 P:y             0.126  0.00    49 Na
                                    3.40%     2 P:x             0.126  0.00    46 Na
                                    3.23%     2 P:x             0.126  0.00    47 Na
                                    3.11%     6 S              -6.463  2.00     4 W
                                    2.90%     2 P:z            -5.658  1.00    44 P
                                    2.61%     7 S               1.678  0.00     5 W
                                   -2.15%     3 S              -2.751  1.00    52 Na
                                    2.02%     3 D:xz           -4.382  0.80     7 W
                                    1.93%     6 S              -6.463  2.00     8 W
                                    1.59%     3 D:yz           -4.382  0.80     7 W
                                    1.53%     4 S               0.705  0.00    47 Na
                                    1.53%     4 S               0.705  0.00    45 Na
                                    1.46%     2 P:z             0.126  0.00    51 Na
                                    1.44%     3 D:xy           -4.382  0.80     7 W
                                    1.40%     4 S               0.705  0.00    48 Na

 Energy gradients wrt nuclear displacements
 ==========================================

     Atom      Cartesian (a.u./angstrom)
                 X         Y         Z
 ----------------------------------------
     1 W     0.000528 -0.000876  0.000163
     2 W    -0.000610  0.000904 -0.000251
     3 W     0.000102 -0.000098 -0.000468
     4 W     0.000177  0.000211  0.000314
     5 W     0.000053  0.000569  0.000192
     6 O     0.000196  0.000019  0.000001
     7 O    -0.000156  0.000027  0.000188
     8 O     0.000597 -0.000562 -0.000128
     9 O    -0.000462  0.000159  0.000418
    10 O     0.000141  0.000023 -0.000515
    11 O     0.000097  0.000421 -0.000327
    12 O     0.000173 -0.000016  0.000286
    13 O     0.000268 -0.000388 -0.000008
    14 O    -0.000023 -0.000060 -0.000021
    15 O    -0.000163  0.000009 -0.000047
    16 O    -0.000330 -0.000253  0.000229
    17 O     0.000321 -0.000043 -0.000426
    18 O     0.000234  0.000407 -0.000183
    19 O     0.000008  0.000085 -0.000390
    20 O     0.000107 -0.000220  0.000249
    21 W    -0.000449 -0.000746 -0.000697
    22 W    -0.000176 -0.000299 -0.000945
    23 O     0.000514 -0.000363  0.000153
    24 O    -0.000109  0.000374 -0.000123
    25 P     0.000563  0.000008  0.000124
    26 O    -0.000282 -0.000142 -0.000061
    27 O    -0.000368  0.000018 -0.000264
    28 O    -0.000309  0.000014  0.000283
    29 O    -0.000219  0.000660  0.000461
    30 O    -0.000020  0.000002 -0.000125
    31 O     0.000420 -0.000109 -0.000267
    32 O    -0.000142 -0.000220 -0.000669
    33 O     0.000083  0.000331  0.000312
    34 O     0.000250 -0.000218 -0.000026
    35 O    -0.000144  0.000406  0.000297
    36 O    -0.000144  0.000104  0.000054
    37 O    -0.000013 -0.000214 -0.000273
    38 O    -0.000006 -0.000148  0.000017
    39 O    -0.000123  0.000235 -0.000174
    40 O     0.000127  0.000086  0.000071
    41 O    -0.000129  0.000016  0.000259
    42 W     0.000597 -0.000347  0.000006
    43 W    -0.000257  0.000186 -0.000245
    44 O    -0.000081 -0.000058  0.000059
    45 Na    0.000060 -0.000120  0.000070
    46 Na    0.000360  0.000506  0.000637
    47 Na   -0.000252 -0.000147  0.000220
    48 Na   -0.000031  0.000059 -0.000057
    49 Na   -0.000412 -0.000010  0.000181
    50 Na   -0.000284 -0.000358  0.000456
    51 Na    0.000353  0.000005  0.000143
    52 Na   -0.000699  0.000284  0.000832
    53 H     0.000063 -0.000114  0.000016
 ----------------------------------------



 =======================================================================
 Electrostatic potential at the Nuclei due to electrons and other nuclei
 =======================================================================
  
         Atom                  Potential
         ----                  ---------
     1)   W                 553.22292252
     2)   W                 553.23361135
     3)   W                 553.23991269
     4)   W                 553.25164355
     5)   W                 553.22800006
     6)   O                  22.36759239
     7)   O                  22.40871619
     8)   O                  22.39515307
     9)   O                  22.40145569
    10)   O                  22.38258381
    11)   O                  22.38479315
    12)   O                  22.40438971
    13)   O                  22.39976129
    14)   O                  22.41097516
    15)   O                  22.43288466
    16)   O                  22.38729155
    17)   O                  22.42543013
    18)   O                  22.40320338
    19)   O                  22.38420573
    20)   O                  22.38170223
    21)   W                 553.25252045
    22)   W                 553.22950911
    23)   O                  22.39492210
    24)   O                  22.42854855
    25)   P                  54.30104536
    26)   O                  22.31336511
    27)   O                  22.36973031
    28)   O                  22.35879029
    29)   O                  22.37483125
    30)   O                  22.39108527
    31)   O                  22.42876616
    32)   O                  22.39995760
    33)   O                  22.39395374
    34)   O                  22.39229143
    35)   O                  22.40443313
    36)   O                  22.43589202
    37)   O                  22.40384190
    38)   O                  22.47793390
    39)   O                  22.41448644
    40)   O                  22.39967627
    41)   O                  22.41655233
    42)   W                 553.27173355
    43)   W                 553.26919330
    44)   O                  22.47682353
    45)   Na                 35.52560442
    46)   Na                 35.50348317
    47)   Na                 35.49007790
    48)   Na                 35.51203100
    49)   Na                 35.53835011
    50)   Na                 35.53190485
    51)   Na                 35.49382735
    52)   Na                 35.47839821
    53)   H                   0.91874526
 Mulliken charges used for AMS results%charges...


    =====================
     CALCULATION RESULTS
    =====================

Energy (hartree)           -18.83778223

Gradients (hartree/bohr)
  Index   Atom            d/dx            d/dy            d/dz
      1      W    0.0002795858   -0.0004634474    0.0000862541
      2      W   -0.0003226687    0.0004784607   -0.0001329438
      3      W    0.0000537332   -0.0000518693   -0.0002474815
      4      W    0.0000938827    0.0001119165    0.0001662693
      5      W    0.0000280867    0.0003008491    0.0001017007
      6      O    0.0001035760    0.0000099989    0.0000003947
      7      O   -0.0000825693    0.0000145229    0.0000992397
      8      O    0.0003157791   -0.0002976421   -0.0000675843
      9      O   -0.0002446861    0.0000839540    0.0002213425
     10      O    0.0000745349    0.0000121150   -0.0002725201
     11      O    0.0000511598    0.0002227936   -0.0001728996
     12      O    0.0000916992   -0.0000084260    0.0001515078
     13      O    0.0001418394   -0.0002055517   -0.0000043264
     14      O   -0.0000124114   -0.0000316909   -0.0000111816
     15      O   -0.0000864777    0.0000046715   -0.0000247691
     16      O   -0.0001744622   -0.0001337774    0.0001209536
     17      O    0.0001696217   -0.0000227275   -0.0002253364
     18      O    0.0001238691    0.0002153669   -0.0000966040
     19      O    0.0000044006    0.0000450055   -0.0002064114
     20      O    0.0000567742   -0.0001162723    0.0001315456
     21      W   -0.0002374735   -0.0003949071   -0.0003686427
     22      W   -0.0000930769   -0.0001583135   -0.0005002495
     23      O    0.0002722160   -0.0001920444    0.0000807361
     24      O   -0.0000575313    0.0001978936   -0.0000652550
     25      P    0.0002981445    0.0000042815    0.0000655679
     26      O   -0.0001490803   -0.0000750722   -0.0000322440
     27      O   -0.0001949142    0.0000095259   -0.0001398472
     28      O   -0.0001632687    0.0000074674    0.0001497256
     29      O   -0.0001157979    0.0003491752    0.0002437999
     30      O   -0.0000107208    0.0000010711   -0.0000660958
     31      O    0.0002220585   -0.0000576763   -0.0001412147
     32      O   -0.0000749976   -0.0001161996   -0.0003539436
     33      O    0.0000441729    0.0001749892    0.0001653587
     34      O    0.0001323185   -0.0001153700   -0.0000140085
     35      O   -0.0000762740    0.0002149899    0.0001569542
     36      O   -0.0000762943    0.0000551484    0.0000287928
     37      O   -0.0000069782   -0.0001130875   -0.0001444923
     38      O   -0.0000031680   -0.0000785774    0.0000092108
     39      O   -0.0000649018    0.0001241253   -0.0000922578
     40      O    0.0000671445    0.0000453101    0.0000375134
     41      O   -0.0000681232    0.0000083557    0.0001372657
     42      W    0.0003158573   -0.0001837336    0.0000032230
     43      W   -0.0001358856    0.0000985677   -0.0001295444
     44      O   -0.0000426615   -0.0000308162    0.0000310459
     45     Na    0.0000315422   -0.0000635023    0.0000370206
     46     Na    0.0001905445    0.0002676522    0.0003368360
     47     Na   -0.0001335610   -0.0000775533    0.0001165169
     48     Na   -0.0000166364    0.0000313129   -0.0000303882
     49     Na   -0.0002178750   -0.0000050358    0.0000957458
     50     Na   -0.0001501259   -0.0001893110    0.0002412670
     51     Na    0.0001865436    0.0000028337    0.0000756250
     52     Na   -0.0003696776    0.0001504262    0.0004404665
     53      H    0.0000332141   -0.0000601757    0.0000083624


--------------
Atomic charges
--------------
  Index   Atom    Charge
      1      W    2.6751
      2      W    2.7859
      3      W    2.7898
      4      W    2.6430
      5      W    2.7719
      6      O   -1.0261
      7      O   -1.1520
      8      O   -1.1237
      9      O   -1.1485
     10      O   -0.8715
     11      O   -1.1123
     12      O   -1.1534
     13      O   -1.1430
     14      O   -1.1582
     15      O   -0.9414
     16      O   -1.1495
     17      O   -0.8436
     18      O   -0.8421
     19      O   -0.9000
     20      O   -1.1618
     21      W    2.6704
     22      W    2.6764
     23      O   -0.8455
     24      O   -0.8600
     25      P    2.4726
     26      O   -0.8030
     27      O   -1.0113
     28      O   -0.9943
     29      O   -1.1579
     30      O   -0.9364
     31      O   -0.8529
     32      O   -1.1435
     33      O   -1.1359
     34      O   -0.8734
     35      O   -1.1388
     36      O   -0.9399
     37      O   -1.1448
     38      O   -0.8597
     39      O   -0.8649
     40      O   -0.9374
     41      O   -1.1645
     42      W    2.6095
     43      W    2.6076
     44      O   -0.8638
     45     Na    0.8994
     46     Na    0.8758
     47     Na    0.9003
     48     Na    0.9647
     49     Na    0.9473
     50     Na    0.9456
     51     Na    0.8736
     52     Na    0.8813
     53      H    0.2648


Dipole moment vector    (Debye):     1.69059368   -9.23470428  -10.45814595
              magnitude (Debye):    14.05384954


AMS application finished. Exiting.
NORMAL TERMINATION
     Total cpu time:  395323.23
  Total system time:   18260.84
 Total elapsed time:  445283.39
