

 Parallel Execution: Process Information
 ==============================================================================
 Rank   Node Name                              NodeID   MyNodeRank  NodeMaster
    0   node008.hpc.strath.ac.uk                  0          0          0
    1   node008.hpc.strath.ac.uk                  0          1         -1
    2   node008.hpc.strath.ac.uk                  0          2         -1
    3   node008.hpc.strath.ac.uk                  0          3         -1
    4   node008.hpc.strath.ac.uk                  0          4         -1
    5   node008.hpc.strath.ac.uk                  0          5         -1
    6   node008.hpc.strath.ac.uk                  0          6         -1
    7   node008.hpc.strath.ac.uk                  0          7         -1
    8   node008.hpc.strath.ac.uk                  0          8         -1
    9   node008.hpc.strath.ac.uk                  0          9         -1
   10   node008.hpc.strath.ac.uk                  0         10         -1
   11   node008.hpc.strath.ac.uk                  0         11         -1
   12   node008.hpc.strath.ac.uk                  0         12         -1
   13   node008.hpc.strath.ac.uk                  0         13         -1
   14   node008.hpc.strath.ac.uk                  0         14         -1
 ==============================================================================


May use up to 46122MB of RAM as shared memory on node 0

 *******************************************************************************
 *                                                                             *
 *  --------------------------------                                           *
 *   Amsterdam Modeling Suite (AMS)              2021.106                      *
 *  --------------------------------                                           *
 *                                               r99350 2021-12-03             *
 *                                                                             *
 *                                                                             *
 *                              =================                              *
 *                              |               |                              *
 *                              |     A M S     |                              *
 *                              |               |                              *
 *                              =================                              *
 *                                                                             *
 *                                                                             *
 *   Online information and documentation:  https://www.scm.com/support/       *
 *   E-mail:  support@scm.com   info@scm.com                                   *
 *                                                                             *
 *   Scientific publications using AMS results must be properly referenced     *
 *   See the User Manuals (or the web site) for recommended citations          *
 *   The terms and conditions of the End User License Agreement apply to       *
 *   the use of AMS, https://www.scm.com/license-terms/                        *
 *                                                                             *
 ***********************  x86_64_linux_intel / openmpi  ************************
 
 Licensed to: Dr. Laia Vila-Nadal / Glasgow University / Glasgow / UNITED KINGDOM 2022-11-04 12:36:29
 SCM User ID: u23786
  
 AMS 2021.106  RunTime: Apr11-2023 10:14:41  ShM Nodes: 1  Procs: 15

 AMS jobname: ams
 AMS jobid  : 698766542

 Start   directory: /users/djb20200/ADF/TM_POM/Tungsten_Addenda_Metal/Lacunary/New/Cations/Hybird/tmp.djb20200.2820429.0.noindex/
 Results directory: /users/djb20200/ADF/TM_POM/Tungsten_Addenda_Metal/Lacunary/New/Cations/Hybird/PBE0-H2O-Li7-PW11O39.results/
 Scratch directory: /tmp/amstmp_ams_kid0.698766542/


 Communication costs MPI_COMM_WORLD:      1.676 usec per message,   0.0312 usec per 8-byte item
 Communication costs for intra-node:      1.682 usec per message,   0.0313 usec per 8-byte item

 RNG seed: 731123043 935994604 -1454048513 -1592417580 -2001568805 -834049995 990992639 -1807461003



                     *************************************************************************
                     *  ADF 2021.106  RunTime: Apr11-2023 10:14:41  ShM Nodes: 1  Procs: 15  *
                     *************************************************************************
  
       ***************************
       *  GEOMETRY OPTIMIZATION  *
       ***************************

Optimization Method                    Quasi Newton
Optimization Coordinates               Delocalized Coordinates
Optimize lattice                       F
 
 ------------------------------------------------------
 Convergence criteria (Hartree,Angstrom)
 ------------------------------------------------------
 Maximum gradient               0.001000000000
 Maximum rms gradient           0.000666666667
 Maximum step allowed           0.010000000000
 Maximum rms step allowed       0.006666666667
 Maximum energy change allowe   0.000610000000
 Maximum stress energy allowe   0.000500000000
 
Initial model Hessian                  Automatic Hessian
 
------------------------------------
Quasi-Newton Optimizer Parameters
------------------------------------
Hessian Update Method                  BFGS
Maximum number of steps                  366
First GDIIS cycle                          0
Maximum GDIIS vectors                      0
Trust radius (bohr)                        0.200000
Trust radius varies                        T
Constraints converged at all steps         T
Use projector                              T
 
 Rigid motions settings for: old optimizer
 Atomic rotations (x,y,z):     T T T
 Atomic translations (x,y,z):  T T T
 Tolerance:                   1.000000000000000E-006
 
--------
Geometry
--------
Formula: H2Li7O40PW11
Atoms
  Index Symbol   x (angstrom)   y (angstrom)   z (angstrom)
      1      W    -4.08223535    -4.93861942     9.67944710       adf.R=1.992
      2      O    -4.93153148    -2.94506212    17.12657230       adf.R=1.517
      3      W    -1.95202065     0.90815786    10.72991228       adf.R=1.992
      4      W    -6.23696177    -1.82293752     9.54792346       adf.R=1.992
      5      W    -2.51290030    -1.65793822     8.46845847       adf.R=1.992
      6      O    -2.54992993    -1.47031760    10.91867572       adf.R=1.517
      7      O    -2.42550598     0.26178673     8.92475958       adf.R=1.517
      8      O    -4.57967060    -1.32669712     8.78024865       adf.R=1.517
      9      O    -0.79425097    -2.09636332     8.81421389       adf.R=1.517
     10      O    -2.57248012    -1.57906515     6.72719041       adf.R=1.517
     11      O    -5.62783607    -3.68609538     9.60895740       adf.R=1.517
     12      O    -6.43692513     0.02693416    10.18869023       adf.R=1.517
     13      O    -4.05457478     1.07171049    10.89357260       adf.R=1.517
     14      O    -0.29324253     0.20032976    10.84433432       adf.R=1.517
     15      O    -7.45562034    -2.37925796    11.03932704       adf.R=1.517
     16      O    -0.56273452    -3.99618791    11.00745302       adf.R=1.517
     17      O    -7.33576836    -1.83058280     8.20186849       adf.R=1.517
     18      O    -1.65532251     2.59615318    10.40676363       adf.R=1.517
     19      O    -4.44986638    -6.01063829     8.36563952       adf.R=1.517
     20      O    -3.01775631    -3.56738623     8.83186813       adf.R=1.517
     21      W    -5.66851679     0.77468671    11.83790787       adf.R=1.992
     22      W    -1.46428164    -5.19646987    12.01097120       adf.R=1.992
     23      W    -4.91860732    -5.41710018    13.05562400       adf.R=1.992
     24      W    -7.07770144    -2.26810044    12.95249100       adf.R=1.992
     25      P    -3.51872214    -2.14440202    11.92445921       adf.R=1.850
     26      O    -3.09470278    -1.82138829    13.40039962       adf.R=1.517
     27      O    -4.99109718    -1.62940773    11.70781933       adf.R=1.517
     28      O    -3.50874494    -3.70298221    11.74248143       adf.R=1.517
     29      O    -2.51922375    -5.77424411    10.41633062       adf.R=1.517
     30      O    -5.15040069    -5.76787416    11.14862340       adf.R=1.517
     31      O    -8.65063488    -2.52978032    13.63895557       adf.R=1.517
     32      O    -0.07495835    -1.79240753    12.95065479       adf.R=1.517
     33      O    -1.25171529    -4.21564201    13.71064762       adf.R=1.517
     34      O    -0.36120877    -6.53248238    12.19512200       adf.R=1.517
     35      O    -4.65589531     0.74701153    13.51751423       adf.R=1.517
     36      O    -7.00503550    -0.31915666    12.85526752       adf.R=1.517
     37      O    -2.04870384     0.86227146    12.73522618       adf.R=1.517
     38      O    -6.38334252    -4.08620846    12.77396318       adf.R=1.517
     39      O    -6.42130969     2.34018956    11.87941672       adf.R=1.517
     40      O    -3.11833924    -6.00091669    13.05767484       adf.R=1.517
     41      O    -5.76853049    -6.75182843    13.76865932       adf.R=1.517
     42      W    -2.90620187     0.42755053    14.41088001       adf.R=1.992
     43      W    -0.85580292    -2.42917994    14.44950907       adf.R=1.992
     44      W    -4.29696533    -2.58900018    15.55089365       adf.R=1.992
     45      O    -5.94620478    -2.09009088    14.53553445       adf.R=1.517
     46      O    -2.45131288    -2.96442544    15.73352344       adf.R=1.517
     47      O    -4.46119840    -4.32218886    14.62976445       adf.R=1.517
     48      O     0.46954428    -2.74497899    15.53527191       adf.R=1.517
     49      O    -1.37794281    -0.57859062    14.99278264       adf.R=1.517
     50      O    -4.02900675    -0.65637894    15.65452390       adf.R=1.517
     51      O    -2.71976242     1.88694369    15.33060923       adf.R=1.517
     52     Li    -0.04584899    -1.94430766    10.83983561       adf.R=2.125
     53     Li    -0.96812382    -3.98766700     9.14700292       adf.R=2.125
     54     Li    -4.47142193     0.62148473     9.02548078       adf.R=2.125
     55     Li    -0.08285210     0.10316653    12.75812971       adf.R=2.125
     56     Li    -5.90571063    -0.13265127    14.75157948       adf.R=2.125
     57     Li    -2.60014916    -4.96844163    14.89823631       adf.R=2.125
     58     Li    -6.86334220    -4.48887149    10.90706204       adf.R=2.125
     59      O     1.89840694    -2.09565896    10.50833634       adf.R=1.517
     60      H     2.18977163    -2.38701987     9.62308265       adf.R=1.350
     61      H     2.45768033    -1.31435745    10.68229026       adf.R=1.350
 
Total System Charge             0.00000
Bonding info available!
 
 
----------------
ADF Engine Input
----------------
 
 Basis
 Type TZP
 Core None
 End
 XC
 Hybrid PBE0
 End
 Solvation
 Surf Delley
 Solv name=Water cav0=0.0 cav1=0.0067639
 Charged method=CONJ
 C-Mat POT
 SCF VAR ALL
 CSMRSP
 End
 

 Title: *** (NO TITLE) ***

 Using automatic Hessian for delocalized coordinates.
 *** GOStep1 ***

 SOLVATION
-------------------------------------------

  The Delley construction of COSMO surface surface is calculated

       Division Level for Surface Triangles (NDIV)                  3
       Final Division Level for Triangles (NFDIV)                   1
       Radius of the Solvent (RSOL)                           1.93000 angstr
  Dielectric Constant (EPSL)                                 78.39000

       COSMO equation is solved iteratively-               conjugate-gradient

       Maximun of Iterations for Charges (NCIX)                  1000
       Criterion for Charge convergence (CCNV)                1.0E-08

  COSMO charges included variationally in SCF

       COSMO included at every SCF cycle

  Geometry-dependent empirical factor                         0.00000

  C-Matrix calculated in cspmtx

  In cspmtx, C-Matrix calculated using fitted potential

-------------------------------------------



 -------------------------------------------
  COSMO surface
  Area             =         1793.654
  Volume           =         5225.728
  Number of Points =         4502
 -------------------------------------------



 ======================
 RI Hartree-Fock Scheme
 ======================
  
 Fit Set Quality     : NORMAL
 Integration Quality : NORMAL
 Threshold Quality   : NORMAL
 Response Quality    : DEFAULT
 Is Range Separated  :  F
 
 RIHartreeFock Dependency: number of modified vectors:          15
 cosmo_calcen: 0.5 (esolb+esolc) (Hartrees) =   -0.088799

 Solvation energy (screening term,uncorrected) =    -55.722494 kcal/mol

 Solvation energy (dispersion and cavitation terms) =      3.353994 kcal/mol
 Solvation Energy Contributions (Hartrees)
          esola   esolb+esolc
     0.08879944   -0.17759887
 esol last cycle   -0.08879944
  
 Hartree-Fock exchange energy:   -3911.55374441193     
 cosmo_calcen: 0.5 (esolb+esolc) (Hartrees) =   -0.088800

 Solvation energy (screening term,uncorrected) =    -55.722536 kcal/mol

 Solvation energy (dispersion and cavitation terms) =      3.353994 kcal/mol
 Solvation Energy Contributions (Hartrees)
          esola   esolb+esolc
     0.08879950   -0.17759901
 esol last cycle   -0.08879950
  pauli hf:                            -40.087407229608743      -1090.8339        -25155.23       -105249.47
  elstat hf:                            -6.889269272851720       -187.4666         -4323.08        -18087.77

 Energy gradients wrt nuclear displacements
 ==========================================

     Atom      Cartesian (a.u./angstrom)
                 X         Y         Z
 ----------------------------------------
     1 W    -0.000700  0.041475  0.047227
     2 O    -0.037547 -0.021054  0.093977
     3 W    -0.053462 -0.045471  0.014619
     4 W     0.028565 -0.004917  0.053985
     5 W    -0.041584  0.003043  0.058495
     6 O     0.021873  0.008137 -0.014261
     7 O    -0.002645  0.024161 -0.026654
     8 O     0.021357  0.012777 -0.020329
     9 O     0.074864 -0.016293  0.011350
    10 O    -0.002835  0.004545 -0.098781
    11 O    -0.012653 -0.013794 -0.005548
    12 O    -0.022268  0.022783 -0.020034
    13 O     0.021060  0.013274 -0.019689
    14 O     0.072377 -0.027765  0.001686
    15 O    -0.032432 -0.009018 -0.015030
    16 O     0.040613  0.049030 -0.039735
    17 O    -0.065217 -0.000322 -0.080456
    18 O     0.017536  0.095802 -0.018243
    19 O    -0.021573 -0.064459 -0.078987
    20 O     0.014283  0.002910 -0.016850
    21 W     0.016740 -0.059184  0.005416
    22 W    -0.064111  0.020554  0.018604
    23 W     0.016938  0.055526 -0.023710
    24 W     0.056642  0.007407 -0.022869
    25 P    -0.003276 -0.002537  0.000803
    26 O     0.006520  0.002396  0.020386
    27 O    -0.019123  0.005923 -0.001946
    28 O     0.001206 -0.021588 -0.000672
    29 O     0.022345 -0.031828 -0.007210
    30 O    -0.021316 -0.026017 -0.014181
    31 O    -0.094632 -0.015698  0.041171
    32 O     0.035400  0.023594 -0.061555
    33 O     0.003376 -0.013432  0.014936
    34 O     0.062928 -0.075261  0.010285
    35 O    -0.007536  0.010193  0.014800
    36 O    -0.025263  0.023093  0.013491
    37 O     0.016944  0.012611 -0.008364
    38 O    -0.011773 -0.014205 -0.002234
    39 O    -0.044833  0.093492  0.002407
    40 O     0.030685 -0.028381  0.009979
    41 O    -0.050535 -0.079737  0.042513
    42 W    -0.020154 -0.049112 -0.033020
    43 W    -0.069697 -0.004587 -0.003999
    44 W     0.007424  0.012953 -0.060448
    45 O    -0.007177  0.006701  0.016147
    46 O     0.034179 -0.014439  0.022313
    47 O     0.000673 -0.011938  0.013332
    48 O     0.075631 -0.017726  0.061283
    49 O     0.030573  0.005108  0.025014
    50 O    -0.011068  0.021164  0.027520
    51 O     0.011555  0.087697  0.055481
    52 Li   -0.003065  0.000225  0.000882
    53 Li    0.000195 -0.000638 -0.001712
    54 Li   -0.000270  0.001239 -0.001533
    55 Li    0.000234  0.001597  0.000251
    56 Li   -0.000574  0.000374  0.000909
    57 Li   -0.000008 -0.000550  0.000959
    58 Li   -0.001076 -0.000952 -0.000238
    59 O    -0.012161 -0.009033  0.012585
    60 H     0.006366 -0.005299 -0.017424
    61 H     0.011480  0.015451  0.002905
 ----------------------------------------
 Mulliken charges used for AMS results%charges...
 
----------------------------------------------------------------------
Geometry Convergence after Step   1       (Hartree/Angstrom,Angstrom)
----------------------------------------------------------------------
current energy                              -22.38453843 Hartree
energy change                     -22.38453843     0.00061000    F
constrained gradient max            0.09878317     0.00100000    F
constrained gradient rms            0.03375310     0.00066667    F
gradient max                        0.09878317
gradient rms                        0.03375310
cart. step max                      0.03210651     0.01000000    F
cart. step rms                      0.00934887     0.00666667    F
 
 
--------
Geometry
--------
Formula: H2Li7O40PW11
Atoms
  Index Symbol   x (angstrom)   y (angstrom)   z (angstrom)
      1      W    -4.08103268    -4.93250190     9.68254260       adf.R=1.992
      2      O    -4.91962295    -2.93976623    17.09533769       adf.R=1.517
      3      W    -1.95462928     0.90255867    10.73393562       adf.R=1.992
      4      W    -6.23070277    -1.82413765     9.55232638       adf.R=1.992
      5      W    -2.51486482    -1.66068545     8.47500184       adf.R=1.992
      6      O    -2.55432643    -1.47325340    10.92322133       adf.R=1.517
      7      O    -2.42638748     0.25569733     8.93187533       adf.R=1.517
      8      O    -4.57954824    -1.33048056     8.78722425       adf.R=1.517
      9      O    -0.80627664    -2.09591030     8.81827372       adf.R=1.517
     10      O    -2.57337053    -1.58285027     6.75867031       adf.R=1.517
     11      O    -5.62274896    -3.68239936     9.61253224       adf.R=1.517
     12      O    -6.43001451     0.02134552    10.19334492       adf.R=1.517
     13      O    -4.05499842     1.06532109    10.89824466       adf.R=1.517
     14      O    -0.30562855     0.19926731    10.84698938       adf.R=1.517
     15      O    -7.44603808    -2.37800408    11.04163787       adf.R=1.517
     16      O    -0.57233986    -3.99812420    11.01282073       adf.R=1.517
     17      O    -7.31334043    -1.83171569     8.22677361       adf.R=1.517
     18      O    -1.66208167     2.56627266    10.41516277       adf.R=1.517
     19      O    -4.44348835    -5.98835856     8.38877044       adf.R=1.517
     20      O    -3.02074592    -3.56623496     8.83824294       adf.R=1.517
     21      W    -5.66325811     0.76908193    11.83846550       adf.R=1.992
     22      W    -1.46738045    -5.18949026    12.00952872       adf.R=1.992
     23      W    -4.91496797    -5.41029669    13.05374355       adf.R=1.992
     24      W    -7.06944185    -2.26795027    12.95029167       adf.R=1.992
     25      P    -3.51849792    -2.14381522    11.92402676       adf.R=1.850
     26      O    -3.09581778    -1.82202072    13.39434213       adf.R=1.517
     27      O    -4.98492646    -1.63130913    11.70860683       adf.R=1.517
     28      O    -3.50828112    -3.69670742    11.74253588       adf.R=1.517
     29      O    -2.52347418    -5.76409029    10.41812431       adf.R=1.517
     30      O    -5.14582449    -5.75999869    11.15033461       adf.R=1.517
     31      O    -8.61852837    -2.52572483    13.62636600       adf.R=1.517
     32      O    -0.08476312    -1.79507357    12.95533025       adf.R=1.517
     33      O    -1.25478821    -4.21047976    13.70553023       adf.R=1.517
     34      O    -0.38008231    -6.50649990    12.19050635       adf.R=1.517
     35      O    -4.65278944     0.74199789    13.51348714       adf.R=1.517
     36      O    -6.99678381    -0.32377892    12.85241388       adf.R=1.517
     37      O    -2.05323865     0.85671133    12.73570601       adf.R=1.517
     38      O    -6.37652821    -4.08150580    12.77302265       adf.R=1.517
     39      O    -6.40509596     2.31084380    11.87945807       adf.R=1.517
     40      O    -3.12055858    -5.99225049    13.05464476       adf.R=1.517
     41      O    -5.75182757    -6.72503429    13.75627120       adf.R=1.517
     42      W    -2.90728768     0.42369422    14.40522778       adf.R=1.992
     43      W    -0.86016012    -2.42768912    14.44323637       adf.R=1.992
     44      W    -4.29480643    -2.58869511    15.54329168       adf.R=1.992
     45      O    -5.94073628    -2.09126069    14.52941096       adf.R=1.517
     46      O    -2.45494414    -2.96177619    15.72520093       adf.R=1.517
     47      O    -4.45892991    -4.31760081    14.62399538       adf.R=1.517
     48      O     0.44629863    -2.73849510    15.51343681       adf.R=1.517
     49      O    -1.38490508    -0.58030488    14.98417065       adf.R=1.517
     50      O    -4.02701590    -0.65985914    15.64625883       adf.R=1.517
     51      O    -2.72406318     1.86092492    15.31115219       adf.R=1.517
     52     Li    -0.05496586    -1.94533168    10.84322393       adf.R=2.125
     53     Li    -0.97421878    -3.98622556     9.15126436       adf.R=2.125
     54     Li    -4.46957946     0.61638293     9.03082391       adf.R=2.125
     55     Li    -0.08990866     0.10037603    12.75864360       adf.R=2.125
     56     Li    -5.90125028    -0.13589730    14.74652597       adf.R=2.125
     57     Li    -2.60110068    -4.96348571    14.89284673       adf.R=2.125
     58     Li    -6.85716880    -4.48471274    10.90850290       adf.R=2.125
     59      O     1.88769756    -2.09641325    10.51175254       adf.R=1.517
     60      H     2.17707188    -2.38627962     9.63092955       adf.R=1.350
     61      H     2.44376379    -1.31897271    10.68485452       adf.R=1.350
 
Total System Charge             0.00000
Bonding info available!
 
 *** GOStep2 ***

 SOLVATION
-------------------------------------------

  The Delley construction of COSMO surface surface is calculated

       Division Level for Surface Triangles (NDIV)                  3
       Final Division Level for Triangles (NFDIV)                   1
       Radius of the Solvent (RSOL)                           1.93000 angstr
  Dielectric Constant (EPSL)                                 78.39000

       COSMO equation is solved iteratively-               conjugate-gradient

       Maximun of Iterations for Charges (NCIX)                  1000
       Criterion for Charge convergence (CCNV)                1.0E-08

  COSMO charges included variationally in SCF

       COSMO included at every SCF cycle

  Geometry-dependent empirical factor                         0.00000

  C-Matrix calculated in cspmtx

  In cspmtx, C-Matrix calculated using fitted potential

-------------------------------------------



 -------------------------------------------
  COSMO surface
  Area             =         1781.113
  Volume           =         5193.531
  Number of Points =         4479
 -------------------------------------------



 ======================
 RI Hartree-Fock Scheme
 ======================
  
 Fit Set Quality     : NORMAL
 Integration Quality : NORMAL
 Threshold Quality   : NORMAL
 Response Quality    : DEFAULT
 Is Range Separated  :  F
 
 RIHartreeFock Dependency: number of modified vectors:          15
 cosmo_calcen: 0.5 (esolb+esolc) (Hartrees) =   -0.085312

 Solvation energy (screening term,uncorrected) =    -53.533942 kcal/mol

 Solvation energy (dispersion and cavitation terms) =      3.330544 kcal/mol
 Solvation Energy Contributions (Hartrees)
          esola   esolb+esolc
     0.08531176   -0.17062351
 esol last cycle   -0.08531176
  
 Hartree-Fock exchange energy:   -3911.94832777292     
 cosmo_calcen: 0.5 (esolb+esolc) (Hartrees) =   -0.085312

 Solvation energy (screening term,uncorrected) =    -53.533948 kcal/mol

 Solvation energy (dispersion and cavitation terms) =      3.330544 kcal/mol
 Solvation Energy Contributions (Hartrees)
          esola   esolb+esolc
     0.08531177   -0.17062354
 esol last cycle   -0.08531177
  pauli hf:                            -42.469334757655020      -1155.6494        -26649.91       -111503.22
  elstat hf:                            -7.033268942362042       -191.3850         -4413.44        -18465.84

 Energy gradients wrt nuclear displacements
 ==========================================

     Atom      Cartesian (a.u./angstrom)
                 X         Y         Z
 ----------------------------------------
     1 W    -0.006661  0.015162  0.012956
     2 O    -0.019885 -0.011187  0.050154
     3 W    -0.033816 -0.010895  0.008328
     4 W     0.004222 -0.004579  0.018777
     5 W    -0.029986  0.000966  0.020197
     6 O     0.013917  0.003436 -0.006974
     7 O    -0.001439  0.020798 -0.023107
     8 O     0.016264  0.009849 -0.016296
     9 O     0.057545 -0.011768  0.008123
    10 O    -0.001296  0.002497 -0.054274
    11 O    -0.009985 -0.011257 -0.004920
    12 O    -0.019003  0.019154 -0.016729
    13 O     0.016158  0.010905 -0.015224
    14 O     0.055535 -0.020899  0.000466
    15 O    -0.027443 -0.007089 -0.012632
    16 O     0.029661  0.035513 -0.028100
    17 O    -0.034683 -0.000186 -0.043133
    18 O     0.009937  0.052603 -0.009958
    19 O    -0.011219 -0.034192 -0.041936
    20 O     0.010785  0.000931 -0.013213
    21 W     0.001013 -0.019350  0.005126
    22 W    -0.029222 -0.001431  0.014130
    23 W    -0.001903  0.020795 -0.005130
    24 W     0.017114  0.001108 -0.005831
    25 P    -0.001382 -0.000222 -0.001952
    26 O     0.004382  0.001157  0.013272
    27 O    -0.012115  0.003430 -0.000884
    28 O     0.000998 -0.014309 -0.000097
    29 O     0.017804 -0.025975 -0.006253
    30 O    -0.017554 -0.022440 -0.012270
    31 O    -0.050416 -0.008395  0.021910
    32 O     0.025831  0.016355 -0.044555
    33 O     0.003216 -0.010903  0.012092
    34 O     0.034188 -0.040447  0.005515
    35 O    -0.005725  0.008691  0.011882
    36 O    -0.021493  0.019378  0.010957
    37 O     0.013343  0.010106 -0.005197
    38 O    -0.009772 -0.011483 -0.001432
    39 O    -0.023902  0.049976  0.001298
    40 O     0.025214 -0.023742  0.008161
    41 O    -0.026823 -0.042540  0.022705
    42 W    -0.012354 -0.012037 -0.011267
    43 W    -0.030503 -0.006602  0.009506
    44 W    -0.005985  0.002844 -0.020310
    45 O    -0.006141  0.005185  0.013174
    46 O     0.028242 -0.011825  0.018742
    47 O     0.000512 -0.009862  0.011045
    48 O     0.040955 -0.009548  0.032905
    49 O     0.024604  0.004723  0.020485
    50 O    -0.008757  0.018110  0.023515
    51 O     0.006191  0.046633  0.029357
    52 Li   -0.002241  0.000183  0.000727
    53 Li    0.000617 -0.000503 -0.002023
    54 Li   -0.000301  0.001611 -0.001960
    55 Li    0.000703  0.001763 -0.000018
    56 Li   -0.000918  0.000717  0.001159
    57 Li    0.000108 -0.000870  0.001324
    58 Li   -0.001542 -0.001152 -0.000465
    59 O    -0.005037 -0.004845  0.006612
    60 H     0.003952 -0.002291 -0.009364
    61 H     0.006493  0.008250  0.000905
 ----------------------------------------
 Mulliken charges used for AMS results%charges...

 dE(predicted):    -0.31420E-01, dE(actual):    -0.34235E-01, Trust radius:    0.400000, all in a.u.
 
----------------------------------------------------------------------
Geometry Convergence after Step   2       (Hartree/Angstrom,Angstrom)
----------------------------------------------------------------------
current energy                              -22.41877359 Hartree
energy change                      -0.03423515     0.00061000    F
constrained gradient max            0.05752412     0.00100000    F
constrained gradient rms            0.01934825     0.00066667    F
gradient max                        0.05752412
gradient rms                        0.01934825
cart. step max                      0.05458790     0.01000000    F
cart. step rms                      0.01814951     0.00666667    F
 
 
--------
Geometry
--------
Formula: H2Li7O40PW11
Atoms
  Index Symbol   x (angstrom)   y (angstrom)   z (angstrom)
      1      W    -4.07705097    -4.91454312     9.69139589       adf.R=1.992
      2      O    -4.90166138    -2.93273730    17.04406426       adf.R=1.517
      3      W    -1.96206499     0.88752275    10.74376451       adf.R=1.992
      4      W    -6.21217367    -1.82803524     9.56527592       adf.R=1.992
      5      W    -2.52044824    -1.66708932     8.49226107       adf.R=1.992
      6      O    -2.56392144    -1.47898388    10.93234561       adf.R=1.517
      7      O    -2.42898345     0.23752001     8.95294167       adf.R=1.517
      8      O    -4.57816989    -1.34040216     8.80639522       adf.R=1.517
      9      O    -0.83699285    -2.09431314     8.82852496       adf.R=1.517
     10      O    -2.57874451    -1.58975127     6.80866450       adf.R=1.517
     11      O    -5.60794477    -3.67193736     9.62280067       adf.R=1.517
     12      O    -6.40896606     0.00309798    10.20895445       adf.R=1.517
     13      O    -4.05528234     1.04738309    10.91041476       adf.R=1.517
     14      O    -0.33729153     0.19650653    10.85326727       adf.R=1.517
     15      O    -7.41603606    -2.37407089    11.04920596       adf.R=1.517
     16      O    -0.59477205    -4.00094374    11.02487461       adf.R=1.517
     17      O    -7.27638421    -1.83537842     8.26656184       adf.R=1.517
     18      O    -1.67664906     2.51950788    10.42957495       adf.R=1.517
     19      O    -4.43379529    -5.95129967     8.42290719       adf.R=1.517
     20      O    -3.02773910    -3.56095530     8.85479731       adf.R=1.517
     21      W    -5.64760063     0.75272192    11.84048915       adf.R=1.992
     22      W    -1.47643510    -5.17056768    12.00764042       adf.R=1.992
     23      W    -4.90441135    -5.39048468    13.04845390       adf.R=1.992
     24      W    -7.04408182    -2.26770825    12.94374962       adf.R=1.992
     25      P    -3.51672195    -2.14256554    11.92340798       adf.R=1.850
     26      O    -3.09826311    -1.82376844    13.37863771       adf.R=1.517
     27      O    -4.96743429    -1.63626011    11.71052101       adf.R=1.517
     28      O    -3.50652909    -3.68006763    11.74279944       adf.R=1.517
     29      O    -2.53521684    -5.73359303    10.42579519       adf.R=1.517
     30      O    -5.13040995    -5.73581124    11.15646829       adf.R=1.517
     31      O    -8.56394047    -2.52036732    13.60655657       adf.R=1.517
     32      O    -0.10807832    -1.80103899    12.96450751       adf.R=1.517
     33      O    -1.26417252    -4.19742523    13.69299142       adf.R=1.517
     34      O    -0.41073156    -6.46485131    12.18456221       adf.R=1.517
     35      O    -4.64377524     0.72756055    13.50217288       adf.R=1.517
     36      O    -6.97111984    -0.33854407    12.84345306       adf.R=1.517
     37      O    -2.06501233     0.84169938    12.73460023       adf.R=1.517
     38      O    -6.35617864    -4.06822954    12.77000866       adf.R=1.517
     39      O    -6.37753044     2.26415229    11.88105297       adf.R=1.517
     40      O    -3.12805677    -5.96686527    13.04606894       adf.R=1.517
     41      O    -5.72526935    -6.68068363    13.73745917       adf.R=1.517
     42      W    -2.91007662     0.41246817    14.38858943       adf.R=1.992
     43      W    -0.87300001    -2.42539964    14.42668400       adf.R=1.992
     44      W    -4.28869977    -2.58792798    15.52131533       adf.R=1.992
     45      O    -5.92424747    -2.09453287    14.51185826       adf.R=1.517
     46      O    -2.46666851    -2.95393391    15.70113219       adf.R=1.517
     47      O    -4.45296835    -4.30431711    14.60751188       adf.R=1.517
     48      O     0.40835928    -2.72937230    15.47876789       adf.R=1.517
     49      O    -1.40541678    -0.58797488    14.95839604       adf.R=1.517
     50      O    -4.01993537    -0.67168657    15.62086958       adf.R=1.517
     51      O    -2.73110862     1.82182030    15.27866759       adf.R=1.517
     52     Li    -0.07618769    -1.94746178    10.85068821       adf.R=2.125
     53     Li    -0.98708013    -3.98275180     9.16075062       adf.R=2.125
     54     Li    -4.46488904     0.60380903     9.04395650       adf.R=2.125
     55     Li    -0.10507399     0.09391662    12.75934081       adf.R=2.125
     56     Li    -5.88955954    -0.14407097    14.73434126       adf.R=2.125
     57     Li    -2.60369419    -4.95216165    14.88069850       adf.R=2.125
     58     Li    -6.84108861    -4.47481735    10.91207743       adf.R=2.125
     59      O     1.86162739    -2.09999140    10.52183390       adf.R=1.517
     60      H     2.14736808    -2.38962546     9.64669915       adf.R=1.350
     61      H     2.41313091    -1.32736088    10.69584723       adf.R=1.350
 
Total System Charge             0.00000
Bonding info available!
 
 *** GOStep3 ***

 SOLVATION
-------------------------------------------

  The Delley construction of COSMO surface surface is calculated

       Division Level for Surface Triangles (NDIV)                  3
       Final Division Level for Triangles (NFDIV)                   1
       Radius of the Solvent (RSOL)                           1.93000 angstr
  Dielectric Constant (EPSL)                                 78.39000

       COSMO equation is solved iteratively-               conjugate-gradient

       Maximun of Iterations for Charges (NCIX)                  1000
       Criterion for Charge convergence (CCNV)                1.0E-08

  COSMO charges included variationally in SCF

       COSMO included at every SCF cycle

  Geometry-dependent empirical factor                         0.00000

  C-Matrix calculated in cspmtx

  In cspmtx, C-Matrix calculated using fitted potential

-------------------------------------------



 -------------------------------------------
  COSMO surface
  Area             =         1759.526
  Volume           =         5131.825
  Number of Points =         4437
 -------------------------------------------



 ======================
 RI Hartree-Fock Scheme
 ======================
  
 Fit Set Quality     : NORMAL
 Integration Quality : NORMAL
 Threshold Quality   : NORMAL
 Response Quality    : DEFAULT
 Is Range Separated  :  F
 
 RIHartreeFock Dependency: number of modified vectors:          15
 cosmo_calcen: 0.5 (esolb+esolc) (Hartrees) =   -0.082506

 Solvation energy (screening term,uncorrected) =    -51.773383 kcal/mol

 Solvation energy (dispersion and cavitation terms) =      3.290176 kcal/mol
 Solvation Energy Contributions (Hartrees)
          esola   esolb+esolc
     0.08250613   -0.16501226
 esol last cycle   -0.08250613
  
 Hartree-Fock exchange energy:   -3912.67133917459     
 cosmo_calcen: 0.5 (esolb+esolc) (Hartrees) =   -0.082506

 Solvation energy (screening term,uncorrected) =    -51.773385 kcal/mol

 Solvation energy (dispersion and cavitation terms) =      3.290176 kcal/mol
 Solvation Energy Contributions (Hartrees)
          esola   esolb+esolc
     0.08250613   -0.16501226
 esol last cycle   -0.08250613
  pauli hf:                            -49.554730230423161      -1348.4528        -31096.07       -130105.93
  elstat hf:                            -7.319433315283050       -199.1719         -4593.01        -19217.17

 Energy gradients wrt nuclear displacements
 ==========================================

     Atom      Cartesian (a.u./angstrom)
                 X         Y         Z
 ----------------------------------------
     1 W    -0.011039 -0.019204 -0.034482
     2 O     0.006889  0.003684 -0.016086
     3 W     0.007370  0.035180  0.001014
     4 W    -0.025079 -0.004534 -0.030536
     5 W    -0.000689 -0.006363 -0.033904
     6 O    -0.005211 -0.007300  0.009753
     7 O     0.001808  0.012116 -0.013998
     8 O     0.003452  0.002666 -0.007064
     9 O     0.014136 -0.000536 -0.000423
    10 O     0.001235 -0.000787  0.016490
    11 O    -0.004117 -0.004584 -0.004204
    12 O    -0.011167  0.009884 -0.008288
    13 O     0.004052  0.005809 -0.004337
    14 O     0.013262 -0.003091 -0.002625
    15 O    -0.015253 -0.001889 -0.006274
    16 O     0.004724  0.003721 -0.001228
    17 O     0.011722 -0.000021  0.013569
    18 O    -0.002062 -0.016219  0.003178
    19 O     0.004214  0.011130  0.013335
    20 O     0.002759 -0.003218 -0.005448
    21 W    -0.016522  0.035480  0.004236
    22 W     0.027517 -0.023229  0.000817
    23 W    -0.023285 -0.026629  0.020744
    24 W    -0.035031 -0.007199  0.016627
    25 P     0.001016  0.003070 -0.004987
    26 O    -0.002148 -0.002617 -0.007112
    27 O     0.008283 -0.003716  0.002005
    28 O     0.000061  0.006764  0.001816
    29 O     0.006093 -0.011751 -0.004292
    30 O    -0.008096 -0.014199 -0.006621
    31 O     0.016449  0.002662 -0.007223
    32 O     0.004224 -0.000518 -0.004388
    33 O     0.003323 -0.005374  0.005615
    34 O    -0.009603  0.012845 -0.001627
    35 O    -0.001533  0.005980  0.004351
    36 O    -0.012490  0.009671  0.004350
    37 O     0.005078  0.005024  0.001522
    38 O    -0.005572 -0.005143  0.000986
    39 O     0.008022 -0.015964 -0.000321
    40 O     0.009600 -0.012500  0.003891
    41 O     0.009084  0.013659 -0.007318
    42 W     0.001520  0.038123  0.016014
    43 W     0.031066 -0.005168  0.016976
    44 W    -0.020157 -0.012486  0.033751
    45 O    -0.004295  0.001190  0.006375
    46 O     0.011431 -0.004991  0.010738
    47 O    -0.000507 -0.005013  0.005906
    48 O    -0.012022  0.002815 -0.010635
    49 O     0.009340  0.004122  0.009443
    50 O    -0.002989  0.009667  0.014239
    51 O    -0.001804 -0.015122 -0.009654
    52 Li   -0.001335  0.000133  0.000571
    53 Li    0.001054  0.000322 -0.002022
    54 Li   -0.000119  0.001774 -0.002208
    55 Li    0.000993  0.001616 -0.000920
    56 Li   -0.001083  0.001046  0.001008
    57 Li    0.000242 -0.000833  0.001295
    58 Li   -0.001742 -0.000987 -0.000762
    59 O     0.004887  0.000767 -0.001608
    60 H     0.000292  0.001039  0.000967
    61 H    -0.000244 -0.000776 -0.000988
 ----------------------------------------
 Mulliken charges used for AMS results%charges...

 dE(predicted):    -0.26418E-01, dE(actual):    -0.28002E-01, Trust radius:    0.800000, all in a.u.
 
----------------------------------------------------------------------
Geometry Convergence after Step   3       (Hartree/Angstrom,Angstrom)
----------------------------------------------------------------------
current energy                              -22.44677511 Hartree
energy change                      -0.02800152     0.00061000    F
constrained gradient max            0.03810408     0.00100000    F
constrained gradient rms            0.01147939     0.00066667    F
gradient max                        0.03810408
gradient rms                        0.01147939
cart. step max                      0.02019660     0.01000000    F
cart. step rms                      0.00751160     0.00666667    F
 
 
--------
Geometry
--------
Formula: H2Li7O40PW11
Atoms
  Index Symbol   x (angstrom)   y (angstrom)   z (angstrom)
      1      W    -4.07471024    -4.90341144     9.69631355       adf.R=1.992
      2      O    -4.90048819    -2.93232884    17.03402326       adf.R=1.517
      3      W    -1.96769257     0.88041248    10.74759732       adf.R=1.992
      4      W    -6.20206689    -1.83067449     9.57301660       adf.R=1.992
      5      W    -2.52517564    -1.66885033     8.50025579       adf.R=1.992
      6      O    -2.56540462    -1.47907208    10.93265396       adf.R=1.517
      7      O    -2.43314481     0.22574053     8.96708623       adf.R=1.517
      8      O    -4.57737479    -1.34417845     8.81728146       adf.R=1.517
      9      O    -0.85114523    -2.09332183     8.83318992       adf.R=1.517
     10      O    -2.58707717    -1.58999835     6.81412504       adf.R=1.517
     11      O    -5.60015768    -3.66628326     9.62995534       adf.R=1.517
     12      O    -6.39615940    -0.01014124    10.22108718       adf.R=1.517
     13      O    -4.05579295     1.03674425    10.91576446       adf.R=1.517
     14      O    -0.35159432     0.19509070    10.85597781       adf.R=1.517
     15      O    -7.39583946    -2.37219771    11.05497542       adf.R=1.517
     16      O    -0.60295560    -3.99955791    11.02751260       adf.R=1.517
     17      O    -7.27147678    -1.83754874     8.27427141       adf.R=1.517
     18      O    -1.68623629     2.51565510    10.43184118       adf.R=1.517
     19      O    -4.43295008    -5.94413842     8.42717171       adf.R=1.517
     20      O    -3.03072027    -3.55544782     8.86338995       adf.R=1.517
     21      W    -5.63906200     0.74331201    11.84244257       adf.R=1.992
     22      W    -1.48201438    -5.16040436    12.00823940       adf.R=1.992
     23      W    -4.89818535    -5.37875443    13.04548832       adf.R=1.992
     24      W    -7.02821732    -2.26804450    12.94019000       adf.R=1.992
     25      P    -3.51397966    -2.14170596    11.92297892       adf.R=1.850
     26      O    -3.09821118    -1.82386072    13.37260461       adf.R=1.517
     27      O    -4.95937294    -1.63765111    11.71068200       adf.R=1.517
     28      O    -3.50494960    -3.67318047    11.74228130       adf.R=1.517
     29      O    -2.54101156    -5.71354602    10.43181144       adf.R=1.517
     30      O    -5.11880895    -5.71837536    11.16128852       adf.R=1.517
     31      O    -8.55156392    -2.52075527    13.60358832       adf.R=1.517
     32      O    -0.11708799    -1.80178117    12.96508345       adf.R=1.517
     33      O    -1.27144039    -4.19047477    13.68693900       adf.R=1.517
     34      O    -0.41840128    -6.45975525    12.18535513       adf.R=1.517
     35      O    -4.63980579     0.71806504    13.49673386       adf.R=1.517
     36      O    -6.95399517    -0.34899443    12.83823791       adf.R=1.517
     37      O    -2.07153777     0.83305905    12.73128404       adf.R=1.517
     38      O    -6.34305362    -4.06046781    12.76704092       adf.R=1.517
     39      O    -6.37388111     2.25599838    11.88319551       adf.R=1.517
     40      O    -3.13274823    -5.95070269    13.04073163       adf.R=1.517
     41      O    -5.72144567    -6.67169096    13.73463301       adf.R=1.517
     42      W    -2.91193505     0.40611148    14.37844006       adf.R=1.992
     43      W    -0.88078169    -2.42554144    14.41829025       adf.R=1.992
     44      W    -4.28529922    -2.58757716    15.50851258       adf.R=1.992
     45      O    -5.91330025    -2.09570303    14.50123135       adf.R=1.517
     46      O    -2.47411704    -2.94892213    15.68579147       adf.R=1.517
     47      O    -4.44921080    -4.29630307    14.59759348       adf.R=1.517
     48      O     0.39992770    -2.72879011    15.47563504       adf.R=1.517
     49      O    -1.41718380    -0.59436583    14.94132576       adf.R=1.517
     50      O    -4.01465494    -0.68061604    15.60284142       adf.R=1.517
     51      O    -2.73302853     1.81728293    15.27194731       adf.R=1.517
     52     Li    -0.08315596    -1.94756113    10.85224943       adf.R=2.125
     53     Li    -0.99073477    -3.98117576     9.16299809       adf.R=2.125
     54     Li    -4.46479638     0.59970248     9.04879205       adf.R=2.125
     55     Li    -0.10953969     0.09235939    12.75898329       adf.R=2.125
     56     Li    -5.88508432    -0.14732617    14.73096602       adf.R=2.125
     57     Li    -2.60448583    -4.94900394    14.87744240       adf.R=2.125
     58     Li    -6.83474739    -4.47210913    10.91356255       adf.R=2.125
     59      O     1.85143222    -2.10597559    10.53041943       adf.R=1.517
     60      H     2.13816011    -2.39835779     9.65725600       adf.R=1.350
     61      H     2.40422201    -1.33588218    10.70781672       adf.R=1.350
 
Total System Charge             0.00000
Bonding info available!
 
 *** GOStep4 ***

 SOLVATION
-------------------------------------------

  The Delley construction of COSMO surface surface is calculated

       Division Level for Surface Triangles (NDIV)                  3
       Final Division Level for Triangles (NFDIV)                   1
       Radius of the Solvent (RSOL)                           1.93000 angstr
  Dielectric Constant (EPSL)                                 78.39000

       COSMO equation is solved iteratively-               conjugate-gradient

       Maximun of Iterations for Charges (NCIX)                  1000
       Criterion for Charge convergence (CCNV)                1.0E-08

  COSMO charges included variationally in SCF

       COSMO included at every SCF cycle

  Geometry-dependent empirical factor                         0.00000

  C-Matrix calculated in cspmtx

  In cspmtx, C-Matrix calculated using fitted potential

-------------------------------------------



 -------------------------------------------
  COSMO surface
  Area             =         1754.718
  Volume           =         5113.688
  Number of Points =         4428
 -------------------------------------------



 ======================
 RI Hartree-Fock Scheme
 ======================
  
 Fit Set Quality     : NORMAL
 Integration Quality : NORMAL
 Threshold Quality   : NORMAL
 Response Quality    : DEFAULT
 Is Range Separated  :  F
 
 RIHartreeFock Dependency: number of modified vectors:          15
 cosmo_calcen: 0.5 (esolb+esolc) (Hartrees) =   -0.084592

 Solvation energy (screening term,uncorrected) =    -53.082435 kcal/mol

 Solvation energy (dispersion and cavitation terms) =      3.281187 kcal/mol
 Solvation Energy Contributions (Hartrees)
          esola   esolb+esolc
     0.08459224   -0.16918447
 esol last cycle   -0.08459224
  
 Hartree-Fock exchange energy:   -3912.84635446336     
 cosmo_calcen: 0.5 (esolb+esolc) (Hartrees) =   -0.084592

 Solvation energy (screening term,uncorrected) =    -53.082521 kcal/mol

 Solvation energy (dispersion and cavitation terms) =      3.281187 kcal/mol
 Solvation Energy Contributions (Hartrees)
          esola   esolb+esolc
     0.08459237   -0.16918475
 esol last cycle   -0.08459237
  pauli hf:                            -53.579624038521160      -1457.9758        -33621.73       -140673.28
  elstat hf:                            -7.404810978577530       -201.4952         -4646.59        -19441.33

 Energy gradients wrt nuclear displacements
 ==========================================

     Atom      Cartesian (a.u./angstrom)
                 X         Y         Z
 ----------------------------------------
     1 W    -0.005412 -0.010947 -0.026255
     2 O     0.005399  0.002805 -0.012416
     3 W     0.015304  0.022961  0.003565
     4 W    -0.013610 -0.004827 -0.022499
     5 W     0.009076 -0.009500 -0.023580
     6 O    -0.009651 -0.008813  0.012201
     7 O     0.003033  0.006662 -0.008167
     8 O    -0.002407 -0.000267 -0.003082
     9 O    -0.002141  0.003321 -0.003288
    10 O     0.001075 -0.000722  0.013476
    11 O    -0.001991 -0.001365 -0.003860
    12 O    -0.006805  0.004675 -0.003373
    13 O    -0.001413  0.003666  0.000195
    14 O    -0.002430  0.003228 -0.003400
    15 O    -0.008555  0.000860 -0.002421
    16 O    -0.002448 -0.005943  0.005996
    17 O     0.009030 -0.000112  0.010415
    18 O    -0.001628 -0.013186  0.002631
    19 O     0.003191  0.008337  0.009955
    20 O     0.000088 -0.004226 -0.002591
    21 W    -0.007532  0.025180  0.003452
    22 W     0.026111 -0.010181 -0.003616
    23 W    -0.012461 -0.017879  0.015905
    24 W    -0.021894 -0.004939  0.010896
    25 P     0.000662  0.001956 -0.002638
    26 O    -0.004853 -0.003699 -0.013744
    27 O     0.014689 -0.005897  0.002709
    28 O    -0.000841  0.013960  0.002288
    29 O     0.000481 -0.004511 -0.003028
    30 O    -0.002907 -0.009377 -0.002717
    31 O     0.012644  0.002084 -0.005636
    32 O    -0.001762 -0.004779  0.007349
    33 O     0.003444 -0.003267  0.002982
    34 O    -0.007420  0.010213 -0.001296
    35 O    -0.000370  0.004840  0.000934
    36 O    -0.007592  0.004114  0.000846
    37 O     0.002112  0.003001  0.003543
    38 O    -0.003900 -0.002239  0.002044
    39 O     0.006213 -0.012364 -0.000163
    40 O     0.000118 -0.006749  0.001875
    41 O     0.007129  0.010508 -0.005640
    42 W     0.002930  0.027909  0.008003
    43 W     0.027507 -0.001787  0.003960
    44 W    -0.010903 -0.011244  0.022331
    45 O    -0.003709 -0.000600  0.003297
    46 O     0.001395 -0.001263  0.006826
    47 O    -0.001286 -0.002831  0.003669
    48 O    -0.009258  0.002172 -0.008379
    49 O     0.002027  0.003477  0.003823
    50 O    -0.000114  0.004220  0.009036
    51 O    -0.001380 -0.011180 -0.007196
    52 Li   -0.001440  0.000150  0.000574
    53 Li    0.000846  0.000790 -0.001748
    54 Li    0.000080  0.001489 -0.001932
    55 Li    0.000649  0.001346 -0.001299
    56 Li   -0.000809  0.000958  0.000622
    57 Li    0.000307 -0.000406  0.000810
    58 Li   -0.001372 -0.000677 -0.000784
    59 O     0.006492  0.001485 -0.002725
    60 H    -0.000515  0.000961  0.001955
    61 H    -0.001225 -0.001549 -0.000689
 ----------------------------------------
 Mulliken charges used for AMS results%charges...

 dE(predicted):    -0.38621E-02, dE(actual):    -0.61960E-02, Trust radius:    0.800000, all in a.u.
 
----------------------------------------------------------------------
Geometry Convergence after Step   4       (Hartree/Angstrom,Angstrom)
----------------------------------------------------------------------
current energy                              -22.45297109 Hartree
energy change                      -0.00619599     0.00061000    F
constrained gradient max            0.02788997     0.00100000    F
constrained gradient rms            0.00827973     0.00066667    F
gradient max                        0.02788997
gradient rms                        0.00827973
cart. step max                      0.02178443     0.01000000    F
cart. step rms                      0.00820382     0.00666667    F
 
 
--------
Geometry
--------
Formula: H2Li7O40PW11
Atoms
  Index Symbol   x (angstrom)   y (angstrom)   z (angstrom)
      1      W    -4.07193727    -4.89146038     9.70295101       adf.R=1.992
      2      O    -4.90189751    -2.93191288    17.02633047       adf.R=1.517
      3      W    -1.97573190     0.87369145    10.74904711       adf.R=1.992
      4      W    -6.19300702    -1.83274443     9.58215513       adf.R=1.992
      5      W    -2.53198066    -1.66774428     8.50757209       adf.R=1.992
      6      O    -2.56220551    -1.47607041    10.92831202       adf.R=1.517
      7      O    -2.44186428     0.21437008     8.98176440       adf.R=1.517
      8      O    -4.57631821    -1.34588610     8.82959295       adf.R=1.517
      9      O    -0.86096312    -2.09253027     8.83695790       adf.R=1.517
     10      O    -2.60122216    -1.58717571     6.81443036       adf.R=1.517
     11      O    -5.59162657    -3.65980511     9.64049975       adf.R=1.517
     12      O    -6.38383232    -0.02414064    10.23424525       adf.R=1.517
     13      O    -4.05684186     1.02414818    10.91953842       adf.R=1.517
     14      O    -0.36126949     0.19344814    10.85800381       adf.R=1.517
     15      O    -7.37405503    -2.37168839    11.06169366       adf.R=1.517
     16      O    -0.60830106    -3.99418125    11.02633858       adf.R=1.517
     17      O    -7.27091630    -1.83949340     8.28074699       adf.R=1.517
     18      O    -1.70126216     2.51739066    10.43146909       adf.R=1.517
     19      O    -4.43343183    -5.93828238     8.43046003       adf.R=1.517
     20      O    -3.03412880    -3.54589763     8.87385564       adf.R=1.517
     21      W    -5.63190314     0.73281180    11.84449356       adf.R=1.992
     22      W    -1.48862638    -5.15001301    12.00925497       adf.R=1.992
     23      W    -4.89120017    -5.36637053    13.04163840       adf.R=1.992
     24      W    -7.01159603    -2.26867747    12.93676577       adf.R=1.992
     25      P    -3.51032253    -2.14022527    11.92185540       adf.R=1.850
     26      O    -3.09592733    -1.82309444    13.37058425       adf.R=1.517
     27      O    -4.95594883    -1.63696667    11.70993822       adf.R=1.517
     28      O    -3.50219463    -3.67038370    11.74127064       adf.R=1.517
     29      O    -2.54513210    -5.69382322    10.43875694       adf.R=1.517
     30      O    -5.10655155    -5.69767880    11.16652048       adf.R=1.517
     31      O    -8.54152696    -2.52335266    13.60360820       adf.R=1.517
     32      O    -0.12390427    -1.79986427    12.96058686       adf.R=1.517
     33      O    -1.28208002    -4.18174930    13.67983819       adf.R=1.517
     34      O    -0.42606536    -6.45853881    12.18779593       adf.R=1.517
     35      O    -4.63637311     0.70475391    13.49115444       adf.R=1.517
     36      O    -6.93549294    -0.36054084    12.83407739       adf.R=1.517
     37      O    -2.08018811     0.82194848    12.72447196       adf.R=1.517
     38      O    -6.32717863    -4.05170970    12.76250854       adf.R=1.517
     39      O    -6.37390711     2.25029689    11.88574946       adf.R=1.517
     40      O    -3.13538403    -5.93315609    13.03520976       adf.R=1.517
     41      O    -5.72027855    -6.66452131    13.73246063       adf.R=1.517
     42      W    -2.91410208     0.39791580    14.36782399       adf.R=1.992
     43      W    -0.88967818    -2.42577587    14.41004920       adf.R=1.992
     44      W    -4.28127846    -2.58650590    15.49489812       adf.R=1.992
     45      O    -5.89972409    -2.09617964    14.48887016       adf.R=1.517
     46      O    -2.47999267    -2.94421987    15.66874831       adf.R=1.517
     47      O    -4.44418355    -4.28652004    14.58540686       adf.R=1.517
     48      O     0.39214606    -2.72926275    15.47638632       adf.R=1.517
     49      O    -1.42756287    -0.60199920    14.92446269       adf.R=1.517
     50      O    -4.00982780    -0.69027649    15.58191335       adf.R=1.517
     51      O    -2.73552438     1.81426761    15.26640541       adf.R=1.517
     52     Li    -0.08658572    -1.94639956    10.85136136       adf.R=2.125
     53     Li    -0.99432176    -3.97858728     9.16385904       adf.R=2.125
     54     Li    -4.46800118     0.59724792     9.05273884       adf.R=2.125
     55     Li    -0.11392997     0.09198822    12.75755457       adf.R=2.125
     56     Li    -5.88142558    -0.15064132    14.72863218       adf.R=2.125
     57     Li    -2.60522614    -4.94644090    14.87492066       adf.R=2.125
     58     Li    -6.82902718    -4.47009408    10.91530104       adf.R=2.125
     59      O     1.84263876    -2.11764355    10.54462748       adf.R=1.517
     60      H     2.13416678    -2.41515538     9.67394107       adf.R=1.350
     61      H     2.40076436    -1.35187083    10.72800948       adf.R=1.350
 
Total System Charge             0.00000
Bonding info available!
 
 *** GOStep5 ***

 SOLVATION
-------------------------------------------

  The Delley construction of COSMO surface surface is calculated

       Division Level for Surface Triangles (NDIV)                  3
       Final Division Level for Triangles (NFDIV)                   1
       Radius of the Solvent (RSOL)                           1.93000 angstr
  Dielectric Constant (EPSL)                                 78.39000

       COSMO equation is solved iteratively-               conjugate-gradient

       Maximun of Iterations for Charges (NCIX)                  1000
       Criterion for Charge convergence (CCNV)                1.0E-08

  COSMO charges included variationally in SCF

       COSMO included at every SCF cycle

  Geometry-dependent empirical factor                         0.00000

  C-Matrix calculated in cspmtx

  In cspmtx, C-Matrix calculated using fitted potential

-------------------------------------------



 -------------------------------------------
  COSMO surface
  Area             =         1756.067
  Volume           =         5089.979
  Number of Points =         4419
 -------------------------------------------



 ======================
 RI Hartree-Fock Scheme
 ======================
  
 Fit Set Quality     : NORMAL
 Integration Quality : NORMAL
 Threshold Quality   : NORMAL
 Response Quality    : DEFAULT
 Is Range Separated  :  F
 
 RIHartreeFock Dependency: number of modified vectors:          16
 cosmo_calcen: 0.5 (esolb+esolc) (Hartrees) =   -0.087373

 Solvation energy (screening term,uncorrected) =    -54.827101 kcal/mol

 Solvation energy (dispersion and cavitation terms) =      3.283709 kcal/mol
 Solvation Energy Contributions (Hartrees)
          esola   esolb+esolc
     0.08737254   -0.17474507
 esol last cycle   -0.08737254
  
 Hartree-Fock exchange energy:   -3912.96058681044     
 cosmo_calcen: 0.5 (esolb+esolc) (Hartrees) =   -0.087373

 Solvation energy (screening term,uncorrected) =    -54.827113 kcal/mol

 Solvation energy (dispersion and cavitation terms) =      3.283709 kcal/mol
 Solvation Energy Contributions (Hartrees)
          esola   esolb+esolc
     0.08737256   -0.17474511
 esol last cycle   -0.08737256
  pauli hf:                            -58.095632499659132      -1580.8626        -36455.56       -152530.06
  elstat hf:                            -7.471710931394341       -203.3156         -4688.57        -19616.97

 Energy gradients wrt nuclear displacements
 ==========================================

     Atom      Cartesian (a.u./angstrom)
                 X         Y         Z
 ----------------------------------------
     1 W     0.000507  0.001480 -0.010137
     2 O     0.000394  0.000129 -0.000547
     3 W     0.011752  0.004742  0.005678
     4 W     0.002460 -0.004261 -0.006241
     5 W     0.009353 -0.008753 -0.005162
     6 O    -0.005696 -0.004678  0.006085
     7 O     0.003249  0.000221 -0.000931
     8 O    -0.007092 -0.002618  0.000604
     9 O    -0.008339  0.004060 -0.003429
    10 O     0.000300 -0.000186  0.000548
    11 O     0.000162  0.001347 -0.003062
    12 O    -0.001522 -0.001052  0.002005
    13 O    -0.005783  0.001488  0.003854
    14 O    -0.008363  0.004778 -0.002890
    15 O    -0.000641  0.003271  0.001835
    16 O    -0.004073 -0.007981  0.006730
    17 O     0.000487 -0.000139  0.000454
    18 O     0.000151 -0.000512  0.000240
    19 O     0.000264  0.000329  0.000488
    20 O    -0.001652 -0.003564 -0.000256
    21 W     0.004075  0.005753  0.002094
    22 W     0.012771  0.003023 -0.002645
    23 W     0.002819 -0.002039  0.005953
    24 W    -0.000151 -0.000839  0.000921
    25 P    -0.000867 -0.000775  0.001609
    26 O    -0.004703 -0.002810 -0.011076
    27 O     0.010648 -0.004433  0.001904
    28 O    -0.001504  0.011664  0.001721
    29 O    -0.003891  0.002322 -0.000943
    30 O     0.002486 -0.002912  0.001641
    31 O     0.000625  0.000153 -0.000459
    32 O    -0.003056 -0.004902  0.009699
    33 O     0.002940 -0.001062  0.000437
    34 O     0.000076  0.000654 -0.000177
    35 O     0.000438  0.003101 -0.001908
    36 O    -0.001581 -0.001906 -0.002510
    37 O    -0.000341  0.001051  0.003744
    38 O    -0.001973  0.000708  0.002771
    39 O     0.000150 -0.000798  0.000096
    40 O    -0.008588 -0.000364 -0.000173
    41 O     0.000555  0.000372 -0.000259
    42 W     0.001897  0.009821 -0.002813
    43 W     0.011743 -0.000845 -0.005893
    44 W     0.001791 -0.006771  0.002351
    45 O    -0.002798 -0.002169  0.000082
    46 O    -0.007967  0.002274  0.002178
    47 O    -0.002143 -0.000424  0.001200
    48 O    -0.000132  0.000194 -0.000547
    49 O    -0.004234  0.001708 -0.001625
    50 O     0.002450 -0.001849  0.002293
    51 O    -0.000143 -0.000480 -0.000308
    52 Li   -0.001272  0.000151  0.000504
    53 Li    0.000379  0.000937 -0.001505
    54 Li    0.000301  0.001073 -0.001520
    55 Li    0.000125  0.001154 -0.001341
    56 Li   -0.000425  0.000725  0.000213
    57 Li    0.000292  0.000073  0.000246
    58 Li   -0.000848 -0.000358 -0.000700
    59 O     0.005318  0.000867 -0.001783
    60 H    -0.000536  0.000027  0.000520
    61 H    -0.000646 -0.000169  0.000145
 ----------------------------------------
 Mulliken charges used for AMS results%charges...

 dE(predicted):    -0.26916E-02, dE(actual):    -0.34647E-02, Trust radius:    0.800000, all in a.u.
 
----------------------------------------------------------------------
Geometry Convergence after Step   5       (Hartree/Angstrom,Angstrom)
----------------------------------------------------------------------
current energy                              -22.45643582 Hartree
energy change                      -0.00346473     0.00061000    F
constrained gradient max            0.01272905     0.00100000    F
constrained gradient rms            0.00382298     0.00066667    F
gradient max                        0.01272905
gradient rms                        0.00382298
cart. step max                      0.01075333     0.01000000    F
cart. step rms                      0.00262843     0.00666667    T
 
 
--------
Geometry
--------
Formula: H2Li7O40PW11
Atoms
  Index Symbol   x (angstrom)   y (angstrom)   z (angstrom)
      1      W    -4.07107090    -4.88943748     9.70547107       adf.R=1.992
      2      O    -4.90200400    -2.93138705    17.02389150       adf.R=1.517
      3      W    -1.97869143     0.87205571    10.74752227       adf.R=1.992
      4      W    -6.19247560    -1.83230491     9.58464418       adf.R=1.992
      5      W    -2.53430172    -1.66542541     8.50902279       adf.R=1.992
      6      O    -2.56019080    -1.47404512    10.92566640       adf.R=1.517
      7      O    -2.44657604     0.21375839     8.98339728       adf.R=1.517
      8      O    -4.57532527    -1.34437668     8.83267760       adf.R=1.517
      9      O    -0.86063937    -2.09244877     8.83730968       adf.R=1.517
     10      O    -2.60661851    -1.58477850     6.81504824       adf.R=1.517
     11      O    -5.58962771    -3.65817689     9.64498840       adf.R=1.517
     12      O    -6.38305188    -0.02546453    10.23550356       adf.R=1.517
     13      O    -4.05692670     1.02034632    10.91859755       adf.R=1.517
     14      O    -0.36072724     0.19298227    10.85809458       adf.R=1.517
     15      O    -7.37098198    -2.37320685    11.06261037       adf.R=1.517
     16      O    -0.60857741    -3.99056001    11.02377541       adf.R=1.517
     17      O    -7.27134052    -1.83966413     8.28265077       adf.R=1.517
     18      O    -1.70735733     2.51730352    10.43019154       adf.R=1.517
     19      O    -4.43359896    -5.93613478     8.43186849       adf.R=1.517
     20      O    -3.03515642    -3.54148400     8.87747633       adf.R=1.517
     21      W    -5.63195299     0.73025703    11.84454426       adf.R=1.992
     22      W    -1.49035056    -5.14766403    12.00884271       adf.R=1.992
     23      W    -4.88905902    -5.36422233    13.03984202       adf.R=1.992
     24      W    -7.00873358    -2.26883732    12.93615244       adf.R=1.992
     25      P    -3.50945583    -2.13935840    11.92097468       adf.R=1.850
     26      O    -3.09400000    -1.82222389    13.37220655       adf.R=1.517
     27      O    -4.95814891    -1.63556795    11.70923537       adf.R=1.517
     28      O    -3.50079134    -3.67209294    11.74053013       adf.R=1.517
     29      O    -2.54378904    -5.69250135    10.43954180       adf.R=1.517
     30      O    -5.10534383    -5.69335406    11.16673519       adf.R=1.517
     31      O    -8.53867868    -2.52549268    13.60507705       adf.R=1.517
     32      O    -0.12483222    -1.79752285    12.95667627       adf.R=1.517
     33      O    -1.28626902    -4.17822793    13.67704184       adf.R=1.517
     34      O    -0.42810481    -6.45736229    12.18850005       adf.R=1.517
     35      O    -4.63600525     0.69944631    13.49010295       adf.R=1.517
     36      O    -6.93268150    -0.36206132    12.83485861       adf.R=1.517
     37      O    -2.08334850     0.81788698    12.72097299       adf.R=1.517
     38      O    -6.32238434    -4.04975313    12.76024403       adf.R=1.517
     39      O    -6.37394664     2.24897166    11.88624375       adf.R=1.517
     40      O    -3.13253580    -5.93027804    13.03420553       adf.R=1.517
     41      O    -5.71980554    -6.66232274    13.73135707       adf.R=1.517
     42      W    -2.91440950     0.39506126    14.36622361       adf.R=1.992
     43      W    -0.89176074    -2.42504019    14.40818200       adf.R=1.992
     44      W    -4.27948857    -2.58536496    15.49219462       adf.R=1.992
     45      O    -5.89523362    -2.09544231    14.48561230       adf.R=1.517
     46      O    -2.47788100    -2.94405238    15.66525605       adf.R=1.517
     47      O    -4.44158208    -4.28350474    14.58137513       adf.R=1.517
     48      O     0.38996844    -2.72936165    15.47570003       adf.R=1.517
     49      O    -1.42675215    -0.60310906    14.92324843       adf.R=1.517
     50      O    -4.00994973    -0.69105985    15.57784952       adf.R=1.517
     51      O    -2.73649953     1.81286791    15.26446520       adf.R=1.517
     52     Li    -0.08655343    -1.94533695    10.84999507       adf.R=2.125
     53     Li    -0.99555529    -3.97728375     9.16334341       adf.R=2.125
     54     Li    -4.47074936     0.59789384     9.05282465       adf.R=2.125
     55     Li    -0.11528171     0.09270242    12.75661202       adf.R=2.125
     56     Li    -5.88116286    -0.15132046    14.72860334       adf.R=2.125
     57     Li    -2.60478701    -4.94577950    14.87412431       adf.R=2.125
     58     Li    -6.82827980    -4.47001080    10.91575301       adf.R=2.125
     59      O     1.83965567    -2.12437900    10.55248254       adf.R=1.517
     60      H     2.13501836    -2.42403531     9.68351340       adf.R=1.350
     61      H     2.40149062    -1.36168721    10.73876281       adf.R=1.350
 
Total System Charge             0.00000
Bonding info available!
 
 *** GOStep6 ***

 SOLVATION
-------------------------------------------

  The Delley construction of COSMO surface surface is calculated

       Division Level for Surface Triangles (NDIV)                  3
       Final Division Level for Triangles (NFDIV)                   1
       Radius of the Solvent (RSOL)                           1.93000 angstr
  Dielectric Constant (EPSL)                                 78.39000

       COSMO equation is solved iteratively-               conjugate-gradient

       Maximun of Iterations for Charges (NCIX)                  1000
       Criterion for Charge convergence (CCNV)                1.0E-08

  COSMO charges included variationally in SCF

       COSMO included at every SCF cycle

  Geometry-dependent empirical factor                         0.00000

  C-Matrix calculated in cspmtx

  In cspmtx, C-Matrix calculated using fitted potential

-------------------------------------------



 -------------------------------------------
  COSMO surface
  Area             =         1757.552
  Volume           =         5085.985
  Number of Points =         4423
 -------------------------------------------



 ======================
 RI Hartree-Fock Scheme
 ======================
  
 Fit Set Quality     : NORMAL
 Integration Quality : NORMAL
 Threshold Quality   : NORMAL
 Response Quality    : DEFAULT
 Is Range Separated  :  F
 
 RIHartreeFock Dependency: number of modified vectors:          16
 cosmo_calcen: 0.5 (esolb+esolc) (Hartrees) =   -0.087604

 Solvation energy (screening term,uncorrected) =    -54.972305 kcal/mol

 Solvation energy (dispersion and cavitation terms) =      3.286486 kcal/mol
 Solvation Energy Contributions (Hartrees)
          esola   esolb+esolc
     0.08760393   -0.17520787
 esol last cycle   -0.08760393
  
 Hartree-Fock exchange energy:   -3912.96786659160     
 cosmo_calcen: 0.5 (esolb+esolc) (Hartrees) =   -0.087604

 Solvation energy (screening term,uncorrected) =    -54.972355 kcal/mol

 Solvation energy (dispersion and cavitation terms) =      3.286486 kcal/mol
 Solvation Energy Contributions (Hartrees)
          esola   esolb+esolc
     0.08760401   -0.17520803
 esol last cycle   -0.08760401
  pauli hf:                            -59.097542453395249      -1608.1260        -37084.27       -155160.58
  elstat hf:                            -7.479647814609962       -203.5316         -4693.55        -19637.81

 Energy gradients wrt nuclear displacements
 ==========================================

     Atom      Cartesian (a.u./angstrom)
                 X         Y         Z
 ----------------------------------------
     1 W     0.000040  0.002342 -0.006529
     2 O    -0.000507 -0.000246  0.001322
     3 W     0.006378  0.003426  0.004524
     4 W     0.003375 -0.003437 -0.002792
     5 W     0.004774 -0.006151 -0.002919
     6 O    -0.001911 -0.001880  0.001942
     7 O     0.002399 -0.001236  0.000831
     8 O    -0.005928 -0.002344  0.000653
     9 O    -0.004588  0.002504 -0.002180
    10 O     0.000040 -0.000052 -0.001076
    11 O     0.000579  0.001163 -0.002395
    12 O    -0.000351 -0.001939  0.002597
    13 O    -0.004807  0.001106  0.003415
    14 O    -0.004612  0.002802 -0.001978
    15 O     0.001020  0.002976  0.002092
    16 O    -0.002094 -0.005091  0.004171
    17 O    -0.000905 -0.000073 -0.001009
    18 O     0.000193  0.001069 -0.000076
    19 O    -0.000189 -0.000872 -0.000820
    20 O    -0.001303 -0.002008 -0.000234
    21 W     0.004071  0.002151  0.001670
    22 W     0.007674  0.002147 -0.000003
    23 W     0.003714  0.000336  0.003514
    24 W     0.002858  0.000023 -0.000785
    25 P    -0.000961 -0.001005  0.001789
    26 O    -0.002863 -0.001548 -0.005671
    27 O     0.004645 -0.002193  0.000905
    28 O    -0.001226  0.006069  0.000978
    29 O    -0.003012  0.002721  0.000161
    30 O     0.002964 -0.000890  0.002007
    31 O    -0.001325 -0.000192  0.000407
    32 O    -0.001373 -0.003206  0.006122
    33 O     0.002303 -0.000545  0.000010
    34 O     0.000718 -0.000605 -0.000107
    35 O     0.000785  0.002314 -0.001674
    36 O    -0.000017 -0.002550 -0.002560
    37 O    -0.000475  0.000756  0.002202
    38 O    -0.001356  0.000949  0.002460
    39 O    -0.000854  0.001061  0.000088
    40 O    -0.007249  0.000585 -0.000472
    41 O    -0.000610 -0.001160  0.000549
    42 W     0.000393  0.006445 -0.003051
    43 W     0.006659 -0.002106 -0.003585
    44 W     0.002542 -0.004840 -0.000495
    45 O    -0.002194 -0.002099 -0.000332
    46 O    -0.006911  0.002191  0.000899
    47 O    -0.002206  0.000054  0.000663
    48 O     0.000747  0.000097  0.000529
    49 O    -0.003699  0.000370 -0.002037
    50 O     0.002328 -0.002476  0.000289
    51 O     0.000005  0.000979  0.000734
    52 Li   -0.000939  0.000158  0.000386
    53 Li    0.000230  0.000762 -0.001468
    54 Li    0.000294  0.000952 -0.001366
    55 Li    0.000002  0.001163 -0.001148
    56 Li   -0.000338  0.000586  0.000162
    57 Li    0.000171  0.000139  0.000200
    58 Li   -0.000717 -0.000317 -0.000571
    59 O     0.004284  0.000523 -0.001173
    60 H    -0.000344 -0.000094  0.000045
    61 H    -0.000322  0.000239  0.000191
 ----------------------------------------
 Mulliken charges used for AMS results%charges...

 dE(predicted):    -0.35122E-03, dE(actual):    -0.55512E-03, Trust radius:    0.800000, all in a.u.
 
----------------------------------------------------------------------
Geometry Convergence after Step   6       (Hartree/Angstrom,Angstrom)
----------------------------------------------------------------------
current energy                              -22.45699094 Hartree
energy change                      -0.00055512     0.00061000    T
constrained gradient max            0.00763245     0.00100000    F
constrained gradient rms            0.00252617     0.00066667    F
gradient max                        0.00763245
gradient rms                        0.00252617
cart. step max                      0.02336181     0.01000000    F
cart. step rms                      0.00503550     0.00666667    T
 
 
--------
Geometry
--------
Formula: H2Li7O40PW11
Atoms
  Index Symbol   x (angstrom)   y (angstrom)   z (angstrom)
      1      W    -4.06962163    -4.88763463     9.70980269       adf.R=1.992
      2      O    -4.90022087    -2.93066935    17.01894544       adf.R=1.517
      3      W    -1.98348498     0.86889511    10.74382104       adf.R=1.992
      4      W    -6.19299310    -1.83062935     9.58848952       adf.R=1.992
      5      W    -2.53777132    -1.66045703     8.51149247       adf.R=1.992
      6      O    -2.55875089    -1.47081619    10.92220126       adf.R=1.517
      7      O    -2.45496447     0.21597808     8.98249881       adf.R=1.517
      8      O    -4.57281563    -1.34040927     8.83737400       adf.R=1.517
      9      O    -0.85971603    -2.09205400     8.83774710       adf.R=1.517
     10      O    -2.61436262    -1.58050660     6.81756269       adf.R=1.517
     11      O    -5.58699716    -3.65581942     9.65313202       adf.R=1.517
     12      O    -6.38450877    -0.02410408    10.23413348       adf.R=1.517
     13      O    -4.05655828     1.01389378    10.91540746       adf.R=1.517
     14      O    -0.35941798     0.19228727    10.85801146       adf.R=1.517
     15      O    -7.37024436    -2.37721017    11.06262016       adf.R=1.517
     16      O    -0.60982584    -3.98353901    11.01836521       adf.R=1.517
     17      O    -7.27061692    -1.83980922     8.28556027       adf.R=1.517
     18      O    -1.71663673     2.51521360    10.42761944       adf.R=1.517
     19      O    -4.43361463    -5.93126450     8.43407284       adf.R=1.517
     20      O    -3.03680685    -3.53400362     8.88387197       adf.R=1.517
     21      W    -5.63344170     0.72640733    11.84400415       adf.R=1.992
     22      W    -1.49285823    -5.14394672    12.00652802       adf.R=1.992
     23      W    -4.88494256    -5.36213353    13.03604856       adf.R=1.992
     24      W    -7.00590715    -2.26891710    12.93538209       adf.R=1.992
     25      P    -3.50858697    -2.13777203    11.91939586       adf.R=1.850
     26      O    -3.09052708    -1.82034529    13.37467012       adf.R=1.517
     27      O    -4.96222370    -1.63330218    11.70827130       adf.R=1.517
     28      O    -3.49821781    -3.67492937    11.73888613       adf.R=1.517
     29      O    -2.53961600    -5.69500904    10.43823901       adf.R=1.517
     30      O    -5.10626417    -5.68961908    11.16525435       adf.R=1.517
     31      O    -8.53313581    -2.53013185    13.60859329       adf.R=1.517
     32      O    -0.12724660    -1.79225642    12.94915069       adf.R=1.517
     33      O    -1.29331304    -4.17121338    13.67115620       adf.R=1.517
     34      O    -0.42961890    -6.45270953    12.18878911       adf.R=1.517
     35      O    -4.63606489     0.68998547    13.48894158       adf.R=1.517
     36      O    -6.93154013    -0.36199103    12.83819729       adf.R=1.517
     37      O    -2.08865105     0.81070217    12.71500717       adf.R=1.517
     38      O    -6.31458381    -4.04734956    12.75568793       adf.R=1.517
     39      O    -6.37236688     2.24654648    11.88661177       adf.R=1.517
     40      O    -3.12457199    -5.92810062    13.03283768       adf.R=1.517
     41      O    -5.71700156    -6.65833515    13.72919734       adf.R=1.517
     42      W    -2.91445266     0.39028495    14.36507406       adf.R=1.992
     43      W    -0.89450678    -2.42223622    14.40490661       adf.R=1.992
     44      W    -4.27535006    -2.58262526    15.48884521       adf.R=1.992
     45      O    -5.88746363    -2.09332213    14.48089728       adf.R=1.517
     46      O    -2.47066804    -2.94467265    15.66135713       adf.R=1.517
     47      O    -4.43541606    -4.27867291    14.57439807       adf.R=1.517
     48      O     0.38777501    -2.72928552    15.47128460       adf.R=1.517
     49      O    -1.42177468    -0.60237862    14.92510576       adf.R=1.517
     50      O    -4.01157393    -0.68955673    15.57485970       adf.R=1.517
     51      O    -2.73810347     1.81044908    15.25993015       adf.R=1.517
     52     Li    -0.08818830    -1.94315996    10.84763449       adf.R=2.125
     53     Li    -0.99789256    -3.97481108     9.16197229       adf.R=2.125
     54     Li    -4.47595746     0.59986358     9.05209507       adf.R=2.125
     55     Li    -0.11763156     0.09454583    12.75478741       adf.R=2.125
     56     Li    -5.88124834    -0.15211869    14.72906161       adf.R=2.125
     57     Li    -2.60259572    -4.94436061    14.87200668       adf.R=2.125
     58     Li    -6.82772251    -4.47024189    10.91635299       adf.R=2.125
     59      O     1.83154801    -2.13837847    10.56946911       adf.R=1.517
     60      H     2.13533524    -2.44229031     9.70467294       adf.R=1.350
     61      H     2.40124612    -1.38292620    10.76212462       adf.R=1.350
 
Total System Charge             0.00000
Bonding info available!
 
 *** GOStep7 ***

 SOLVATION
-------------------------------------------

  The Delley construction of COSMO surface surface is calculated

       Division Level for Surface Triangles (NDIV)                  3
       Final Division Level for Triangles (NFDIV)                   1
       Radius of the Solvent (RSOL)                           1.93000 angstr
  Dielectric Constant (EPSL)                                 78.39000

       COSMO equation is solved iteratively-               conjugate-gradient

       Maximun of Iterations for Charges (NCIX)                  1000
       Criterion for Charge convergence (CCNV)                1.0E-08

  COSMO charges included variationally in SCF

       COSMO included at every SCF cycle

  Geometry-dependent empirical factor                         0.00000

  C-Matrix calculated in cspmtx

  In cspmtx, C-Matrix calculated using fitted potential

-------------------------------------------



 -------------------------------------------
  COSMO surface
  Area             =         1756.463
  Volume           =         5082.968
  Number of Points =         4414
 -------------------------------------------



 ======================
 RI Hartree-Fock Scheme
 ======================
  
 Fit Set Quality     : NORMAL
 Integration Quality : NORMAL
 Threshold Quality   : NORMAL
 Response Quality    : DEFAULT
 Is Range Separated  :  F
 
 RIHartreeFock Dependency: number of modified vectors:          16
 cosmo_calcen: 0.5 (esolb+esolc) (Hartrees) =   -0.087453

 Solvation energy (screening term,uncorrected) =    -54.877633 kcal/mol

 Solvation energy (dispersion and cavitation terms) =      3.284449 kcal/mol
 Solvation Energy Contributions (Hartrees)
          esola   esolb+esolc
     0.08745307   -0.17490613
 esol last cycle   -0.08745307
  
 Hartree-Fock exchange energy:   -3912.97335468159     
 cosmo_calcen: 0.5 (esolb+esolc) (Hartrees) =   -0.087453

 Solvation energy (screening term,uncorrected) =    -54.877675 kcal/mol

 Solvation energy (dispersion and cavitation terms) =      3.284449 kcal/mol
 Solvation Energy Contributions (Hartrees)
          esola   esolb+esolc
     0.08745313   -0.17490626
 esol last cycle   -0.08745313
  pauli hf:                            -60.663298486155213      -1650.7323        -38066.80       -159271.47
  elstat hf:                            -7.488036790338811       -203.7598         -4698.81        -19659.84

 Energy gradients wrt nuclear displacements
 ==========================================

     Atom      Cartesian (a.u./angstrom)
                 X         Y         Z
 ----------------------------------------
[...]
                                    1.79%     3 D:x2-y2        -4.382  0.80     9 W
                                    1.59%     6 S              -6.463  2.00     6 W
                                    1.57%     6 S              -6.463  2.00    10 W
                                   -1.54%     2 S              -2.897  1.00    55 Li
                                    1.48%     1 P:x            -0.446  0.00    59 Li
                                    1.44%     3 D:xz           -4.382  0.80    10 W
                                   -1.34%     1 P:x            -0.446  0.00    53 Li
                                    1.12%     1 P:x            -0.446  0.00    56 Li
                                   -1.09%     5 P:x             0.094  0.00     8 W
                                   -1.03%     2 S              -2.897  1.00    53 Li
       1.367  0.00   640 A         20.47%     2 S              -2.897  1.00    53 Li
                                    8.39%     3 S               1.008  0.00    53 Li
                                    7.42%     6 S              -6.463  2.00     2 W
                                    7.18%     6 S              -6.463  2.00     4 W
                                    5.54%     3 D:x2-y2        -4.382  0.80     2 W
                                    5.35%     3 D:z2           -4.382  0.80     4 W
                                    4.96%     1 P:x            -0.446  0.00    58 Li
                                    4.07%     6 S              -6.463  2.00    10 W
                                    4.03%     6 S              -6.463  2.00     6 W
                                   -4.01%     3 S               1.008  0.00    56 Li
                                    3.99%     7 S               1.678  0.00     2 W
                                   -3.85%     3 S               1.008  0.00    54 Li
                                    3.78%     1 P:x            -0.446  0.00    55 Li
                                    3.67%     7 S               1.678  0.00     4 W
                                   -2.51%     2 S              -2.897  1.00    57 Li
                                   -2.34%     2 S              -2.897  1.00    59 Li
                                    2.23%     2 S              -2.897  1.00    55 Li
                                    1.98%     7 S               1.678  0.00     6 W
                                    1.98%     7 S               1.678  0.00    10 W
                                   -1.97%     3 P:x             2.910  0.00    52 P
                                    1.71%     6 S              -6.463  2.00     8 W
                                    1.67%     3 S             -15.778  2.00    52 P
                                    1.65%     1 P:z            -9.955  1.33    17 O
                                    1.65%     3 D:x2-y2        -4.382  0.80     4 W
                                   -1.58%     3 S              23.286  0.00    13 O
                                   -1.56%     2 S              -2.897  1.00    58 Li
                                    1.52%     1 P:y            -9.955  1.33    25 O
                                   -1.46%     3 S               1.008  0.00    55 Li
                                   -1.43%     1 P:z            -0.446  0.00    54 Li
                                    1.39%     2 S             -27.198  2.00    13 O
                                   -1.38%     1 P:y            -0.446  0.00    56 Li
                                    1.34%     1 P:x            -0.446  0.00    53 Li
                                    1.33%     3 S               1.008  0.00    59 Li
                                    1.31%     3 D:x2-y2        -4.382  0.80    11 W
                                    1.29%     3 S               1.008  0.00    57 Li
                                    1.26%     3 D:xy           -4.382  0.80     2 W
                                    1.23%     3 D:xy           -4.382  0.80     7 W
                                    1.08%     3 D:x2-y2        -4.382  0.80     8 W
                                    1.05%     6 S              -6.463  2.00     9 W
                                   -1.04%     1 P:y            -0.446  0.00    54 Li
                                   -1.01%     2 P:x            -5.658  1.00    52 P
       1.484  0.00   641 A         25.13%     6 S              -6.463  2.00     7 W
                                   23.10%     6 S              -6.463  2.00    11 W
                                  -15.86%     2 S              -2.897  1.00    58 Li
                                  -12.16%     2 S              -2.897  1.00    59 Li
                                   12.15%     7 S               1.678  0.00     7 W
                                  -12.00%     2 S              -2.897  1.00    57 Li
                                   10.81%     7 S               1.678  0.00    11 W
                                  -10.70%     2 S              -2.897  1.00    55 Li
                                   10.46%     6 S              -6.463  2.00     1 W
                                    9.20%     6 S              -6.463  2.00     8 W
                                    7.55%     6 S              -6.463  2.00     9 W
                                    7.38%     6 S              -6.463  2.00     3 W
                                    6.75%     6 S              -6.463  2.00     5 W
                                    5.95%     6 S              -6.463  2.00     6 W
                                   -5.69%     2 S              -2.897  1.00    54 Li
                                   -5.44%     2 S              -2.897  1.00    56 Li
                                    5.18%     6 S              -6.463  2.00    10 W
                                   -5.04%     1 P:x            -0.446  0.00    59 Li
                                    4.81%     3 S               1.008  0.00    55 Li
                                    4.18%     7 S               1.678  0.00     1 W
                                    3.92%     7 S               1.678  0.00     8 W
                                    3.19%     3 S             -15.778  2.00    52 P
                                   -3.15%     1 P:y            -0.446  0.00    58 Li
                                   -3.00%     1 P:z            -0.446  0.00    58 Li
                                    2.89%     3 S               1.008  0.00    56 Li
                                    2.85%     3 S               1.008  0.00    58 Li
                                    2.68%     3 S               1.008  0.00    54 Li
                                    2.60%     7 S               1.678  0.00     3 W
                                    2.58%     7 S               1.678  0.00     9 W
                                    2.33%     7 S               1.678  0.00     5 W
                                   -2.29%     1 P:x            -0.446  0.00    57 Li
                                    2.25%     1 P:x            -0.446  0.00    55 Li
                                    2.21%     7 S               1.678  0.00     6 W
                                    2.16%     3 S               1.008  0.00    57 Li
                                   -2.15%     1 P:y            -0.446  0.00    57 Li
                                    1.92%     2 S              -2.897  1.00    53 Li
                                    1.91%     6 S              -6.463  2.00     4 W
                                    1.86%     4 S               3.817  0.00    52 P
                                    1.73%     7 S               1.678  0.00    10 W
                                    1.56%     3 S               1.008  0.00    59 Li
                                    1.38%     6 S              -6.463  2.00     2 W
                                    1.38%     3 D:xy           -4.382  0.80     6 W
                                    1.36%     1 S              -6.581  1.00    61 H
                                   -1.31%     1 P:x            -0.446  0.00    54 Li
                                   -1.27%     1 P:z            -0.446  0.00    54 Li
                                   -1.23%     1 P:x            -0.446  0.00    56 Li
                                    1.13%     3 D:xz           -4.382  0.80    10 W
                                   -1.05%     1 P:z            -0.446  0.00    57 Li

 Energy gradients wrt nuclear displacements
 ==========================================

     Atom      Cartesian (a.u./angstrom)
                 X         Y         Z
 ----------------------------------------
     1 W     0.000711 -0.000334  0.000702
     2 O    -0.000009 -0.000021  0.000070
     3 W     0.000098 -0.000027 -0.000329
     4 W     0.000125  0.000255  0.000570
     5 W     0.000393  0.000450  0.000368
     6 O    -0.000116  0.000274 -0.000407
     7 O    -0.000317 -0.000022  0.000076
     8 O    -0.000397 -0.000535 -0.000050
     9 O    -0.000090 -0.000474 -0.000226
    10 O     0.000021 -0.000039  0.000018
    11 O    -0.000025  0.000247 -0.000455
    12 O     0.000069 -0.000038 -0.000020
    13 O    -0.000228  0.000095  0.000563
    14 O     0.000046  0.000272  0.000489
    15 O     0.000101 -0.000332  0.000238
    16 O     0.000610 -0.000186  0.000277
    17 O     0.000002 -0.000077 -0.000107
    18 O    -0.000034 -0.000005 -0.000003
    19 O     0.000067 -0.000009 -0.000039
    20 O    -0.000470 -0.000065 -0.000223
    21 W    -0.000313 -0.000656 -0.000491
    22 W    -0.000513 -0.000380 -0.000320
    23 W     0.000743 -0.000334 -0.000633
    24 W     0.000004  0.000555 -0.000660
    25 P    -0.000083 -0.000028  0.000111
    26 O     0.000130  0.000169  0.000149
    27 O    -0.000343  0.000042 -0.000068
    28 O     0.000051 -0.000277 -0.000117
    29 O     0.000093  0.000280 -0.000081
    30 O    -0.000380  0.000082  0.000147
    31 O    -0.000099 -0.000074 -0.000009
    32 O     0.000620 -0.000365  0.000097
    33 O     0.000318  0.000108 -0.000179
    34 O     0.000009  0.000046  0.000157
    35 O    -0.000058  0.000437 -0.000291
    36 O     0.000165 -0.000291  0.000418
    37 O    -0.000338  0.000321  0.000129
    38 O     0.000077  0.000109  0.000339
    39 O    -0.000056  0.000034 -0.000077
    40 O    -0.000238  0.000364  0.000432
    41 O     0.000051 -0.000092  0.000051
    42 W     0.000291 -0.000622  0.000302
    43 W    -0.000308  0.000648  0.000660
    44 W     0.000813  0.000319  0.000072
    45 O    -0.000166 -0.000449 -0.000025
    46 O    -0.000439 -0.000396 -0.000285
    47 O    -0.000698 -0.000089  0.000295
    48 O    -0.000076 -0.000006  0.000044
    49 O    -0.000014  0.000108 -0.000364
    50 O    -0.000540 -0.000018 -0.000053
    51 O    -0.000082  0.000083 -0.000054
    52 Li    0.000637  0.000162 -0.000265
    53 Li    0.000187  0.000212 -0.000036
    54 Li    0.000371  0.000253 -0.000530
    55 Li   -0.000216 -0.000240 -0.000293
    56 Li    0.000009 -0.000003 -0.000126
    57 Li   -0.000010  0.000297 -0.000017
    58 Li   -0.000139 -0.000076 -0.000050
    59 O    -0.000035 -0.000031  0.000370
    60 H     0.000023  0.000173 -0.000021
    61 H    -0.000006  0.000194 -0.000236
 ----------------------------------------



 =======================================================================
 Electrostatic potential at the Nuclei due to electrons and other nuclei
 =======================================================================
  
         Atom                  Potential
         ----                  ---------
     1)   W                 553.15323523
     2)   O                  22.34000839
     3)   W                 553.16965158
     4)   W                 553.15839383
     5)   W                 553.16946916
     6)   O                  22.32135657
     7)   O                  22.32116848
     8)   O                  22.32603990
     9)   O                  22.33811850
    10)   O                  22.35902434
    11)   O                  22.31676447
    12)   O                  22.32318889
    13)   O                  22.32601891
    14)   O                  22.33830385
    15)   O                  22.32322343
    16)   O                  22.33535516
    17)   O                  22.34519902
    18)   O                  22.35956782
    19)   O                  22.33816106
    20)   O                  22.31008285
    21)   W                 553.15848788
    22)   W                 553.17074985
    23)   W                 553.15692675
    24)   W                 553.15461750
    25)   P                  54.26045348
    26)   O                  22.31121190
    27)   O                  22.31179770
    28)   O                  22.31187506
    29)   O                  22.32230904
    30)   O                  22.32023891
    31)   O                  22.33938343
    32)   O                  22.33416410
    33)   O                  22.31712565
    34)   O                  22.35881222
    35)   O                  22.31661586
    36)   O                  22.32310836
    37)   O                  22.31006440
    38)   O                  22.31685589
    39)   O                  22.34527524
    40)   O                  22.33093262
    41)   O                  22.34015819
    42)   W                 553.15301238
    43)   W                 553.17011488
    44)   W                 553.15664074
    45)   O                  22.31645062
    46)   O                  22.33081815
    47)   O                  22.31405567
    48)   O                  22.35791581
    49)   O                  22.32178345
    50)   O                  22.31992170
    51)   O                  22.33783225
    52)   Li                  5.75164952
    53)   Li                  5.69057938
    54)   Li                  5.69583046
    55)   Li                  5.69080007
    56)   Li                  5.69111721
    57)   Li                  5.69577097
    58)   Li                  5.69188178
    59)   O                  22.29607457
    60)   H                   0.90094716
    61)   H                   0.90085299
 Mulliken charges used for AMS results%charges...


    =====================
     CALCULATION RESULTS
    =====================

Energy (hartree)           -22.45766013

Gradients (hartree/bohr)
  Index   Atom            d/dx            d/dy            d/dz
      1      W    0.0003762185   -0.0001764992    0.0003715474
      2      O   -0.0000049730   -0.0000111982    0.0000369459
      3      W    0.0000517780   -0.0000143924   -0.0001742492
      4      W    0.0000660949    0.0001350338    0.0003013879
      5      W    0.0002081816    0.0002382436    0.0001946772
      6      O   -0.0000615661    0.0001448483   -0.0002152432
      7      O   -0.0001674894   -0.0000118490    0.0000399631
      8      O   -0.0002102786   -0.0002829458   -0.0000264355
      9      O   -0.0000476399   -0.0002509547   -0.0001193450
     10      O    0.0000108725   -0.0000203738    0.0000097152
     11      O   -0.0000130222    0.0001304440   -0.0002409330
     12      O    0.0000363267   -0.0000198983   -0.0000108350
     13      O   -0.0001205760    0.0000500328    0.0002978418
     14      O    0.0000240927    0.0001437464    0.0002588568
     15      O    0.0000535598   -0.0001754266    0.0001257239
     16      O    0.0003227127   -0.0000984002    0.0001466941
     17      O    0.0000011014   -0.0000409048   -0.0000565209
     18      O   -0.0000178773   -0.0000027977   -0.0000017500
     19      O    0.0000353636   -0.0000046498   -0.0000207735
     20      O   -0.0002485271   -0.0000341981   -0.0001182183
     21      W   -0.0001654668   -0.0003469896   -0.0002600619
     22      W   -0.0002716104   -0.0002010152   -0.0001693625
     23      W    0.0003932768   -0.0001769418   -0.0003350405
     24      W    0.0000020488    0.0002937388   -0.0003491580
     25      P   -0.0000439443   -0.0000145595    0.0000585164
     26      O    0.0000686383    0.0000892397    0.0000787898
     27      O   -0.0001812443    0.0000222582   -0.0000358549
     28      O    0.0000272143   -0.0001466258   -0.0000618531
     29      O    0.0000489811    0.0001483730   -0.0000426290
     30      O   -0.0002009533    0.0000434008    0.0000780363
     31      O   -0.0000521666   -0.0000391237   -0.0000046238
     32      O    0.0003282282   -0.0001933931    0.0000514857
     33      O    0.0001682006    0.0000569010   -0.0000947164
     34      O    0.0000045961    0.0000242445    0.0000830036
     35      O   -0.0000306619    0.0002313892   -0.0001541542
     36      O    0.0000874738   -0.0001537530    0.0002209845
     37      O   -0.0001786047    0.0001696294    0.0000682552
     38      O    0.0000406548    0.0000576296    0.0001794006
     39      O   -0.0000295944    0.0000181561   -0.0000409250
     40      O   -0.0001258788    0.0001926638    0.0002286282
     41      O    0.0000271700   -0.0000484971    0.0000269611
     42      W    0.0001538186   -0.0003291249    0.0001595531
     43      W   -0.0001631323    0.0003429906    0.0003490973
     44      W    0.0004302844    0.0001688482    0.0000383142
     45      O   -0.0000877461   -0.0002375466   -0.0000132742
     46      O   -0.0002322683   -0.0002097049   -0.0001508779
     47      O   -0.0003691727   -0.0000470115    0.0001562733
     48      O   -0.0000403851   -0.0000030150    0.0000231444
     49      O   -0.0000075988    0.0000571837   -0.0001927241
     50      O   -0.0002857662   -0.0000094529   -0.0000278311
     51      O   -0.0000431495    0.0000441754   -0.0000283261
     52     Li    0.0003370873    0.0000858771   -0.0001401518
     53     Li    0.0000988514    0.0001123334   -0.0000193031
     54     Li    0.0001963730    0.0001339318   -0.0002806982
     55     Li   -0.0001141597   -0.0001269764   -0.0001548583
     56     Li    0.0000048503   -0.0000017414   -0.0000668165
     57     Li   -0.0000054641    0.0001572412   -0.0000089918
     58     Li   -0.0000735576   -0.0000404497   -0.0000264972
     59      O   -0.0000186537   -0.0000164934    0.0001955579
     60      H    0.0000124279    0.0000916577   -0.0000111825
     61      H   -0.0000033490    0.0001026920   -0.0001251390


--------------
Atomic charges
--------------
  Index   Atom    Charge
      1      W    2.8432
      2      O   -0.7597
      3      W    2.7649
      4      W    2.8601
      5      W    2.7639
      6      O   -1.0318
      7      O   -1.1574
      8      O   -1.1551
      9      O   -0.9696
     10      O   -0.7848
     11      O   -1.1865
     12      O   -1.1080
     13      O   -1.1554
     14      O   -0.9698
     15      O   -1.1294
     16      O   -0.9845
     17      O   -0.7641
     18      O   -0.7845
     19      O   -0.7521
     20      O   -1.1597
     21      W    2.8599
     22      W    2.7823
     23      W    2.8669
     24      W    2.8802
     25      P    2.6130
     26      O   -1.0696
     27      O   -1.0770
     28      O   -1.0697
     29      O   -1.0793
     30      O   -1.1342
     31      O   -0.7588
     32      O   -0.9848
     33      O   -1.2106
     34      O   -0.7850
     35      O   -1.1857
     36      O   -1.1276
     37      O   -1.1589
     38      O   -1.1819
     39      O   -0.7641
     40      O   -1.1120
     41      O   -0.7599
     42      W    2.8399
     43      W    2.7834
     44      W    2.8649
     45      O   -1.1811
     46      O   -1.1106
     47      O   -1.1772
     48      O   -0.7842
     49      O   -1.0798
     50      O   -1.1343
     51      O   -0.7518
     52     Li    0.8580
     53     Li    0.8046
     54     Li    0.8166
     55     Li    0.8007
     56     Li    0.8428
     57     Li    0.8429
     58     Li    0.8430
     59      O   -0.5481
     60      H    0.2732
     61      H    0.2744


Dipole moment vector    (Debye):     6.30818682    0.41818153   -1.89363428
              magnitude (Debye):     6.59954146


AMS application finished. Exiting.
NORMAL TERMINATION
     Total cpu time:  159848.30
  Total system time:    9743.87
 Total elapsed time:  170732.65
